<?xml version="1.0" encoding="UTF-8"?>

<!-- generated on 2025-09-07 20:44:59 by Eclipse SUMO sumo Version 1.18.0
<configuration xmlns:xsi="http://www.w3.org/2001/XMLSchema-instance" xsi:noNamespaceSchemaLocation="http://sumo.dlr.de/xsd/sumoConfiguration.xsd">

    <input>
        <net-file value="data/net.xml"/>
        <route-files value="data/routes.xml"/>
        <additional-files value="tl_logic.xml"/>
    </input>

    <output>
        <tripinfo-output value="tripinfo.xml"/>
    </output>

    <report>
        <verbose value="true"/>
    </report>

</configuration>
-->

<tripinfos xmlns:xsi="http://www.w3.org/2001/XMLSchema-instance" xsi:noNamespaceSchemaLocation="http://sumo.dlr.de/xsd/tripinfo_file.xsd">
    <tripinfo id="flow_N_to_E.0" depart="3.00" departLane="N1_in_0" departPos="5.10" departSpeed="0.00" departDelay="3.00" arrival="16.00" arrivalLane="E_out_1" arrivalPos="4.67" arrivalSpeed="11.96" duration="13.00" routeLength="108.51" waitingTime="0.00" waitingCount="0" stopTime="0.00" timeLoss="3.92" rerouteNo="1" devices="tripinfo_flow_N_to_E.0 routing_flow_N_to_E.0" vType="car" speedFactor="1.08" vaporized=""/>
    <tripinfo id="flow_N_to_W.0" depart="0.00" departLane="N1_in_0" departPos="5.10" departSpeed="0.00" departDelay="0.00" arrival="20.00" arrivalLane="W_out_0" arrivalPos="89.60" arrivalSpeed="13.39" duration="20.00" routeLength="183.12" waitingTime="0.00" waitingCount="0" stopTime="0.00" timeLoss="5.77" rerouteNo="1" devices="tripinfo_flow_N_to_W.0 routing_flow_N_to_W.0" vType="car" speedFactor="1.01" vaporized=""/>
    <tripinfo id="flow_E_to_N.0" depart="3.00" departLane="E1_in_0" departPos="5.10" departSpeed="0.00" departDelay="3.00" arrival="22.00" arrivalLane="N1_out_0" arrivalPos="67.87" arrivalSpeed="12.66" duration="19.00" routeLength="170.60" waitingTime="0.00" waitingCount="0" stopTime="0.00" timeLoss="5.38" rerouteNo="1" devices="tripinfo_flow_E_to_N.0 routing_flow_E_to_N.0" vType="car" speedFactor="0.94" vaporized=""/>
    <tripinfo id="flow_N_to_E.1" depart="15.00" departLane="N1_in_0" departPos="5.10" departSpeed="0.00" departDelay="3.00" arrival="29.00" arrivalLane="E_out_1" arrivalPos="4.67" arrivalSpeed="9.81" duration="14.00" routeLength="108.51" waitingTime="0.00" waitingCount="0" stopTime="0.00" timeLoss="3.72" rerouteNo="1" devices="tripinfo_flow_N_to_E.1 routing_flow_N_to_E.1" vType="car" speedFactor="0.86" vaporized=""/>
    <tripinfo id="flow_N_to_W.1" depart="12.00" departLane="N1_in_0" departPos="5.10" departSpeed="0.00" departDelay="0.00" arrival="32.00" arrivalLane="W_out_0" arrivalPos="89.60" arrivalSpeed="11.94" duration="20.00" routeLength="183.12" waitingTime="0.00" waitingCount="0" stopTime="0.00" timeLoss="4.65" rerouteNo="1" devices="tripinfo_flow_N_to_W.1 routing_flow_N_to_W.1" vType="car" speedFactor="0.94" vaporized=""/>
    <tripinfo id="flow_E_to_N.1" depart="15.00" departLane="E1_in_0" departPos="5.10" departSpeed="0.00" departDelay="3.00" arrival="34.00" arrivalLane="N1_out_0" arrivalPos="67.87" arrivalSpeed="11.98" duration="19.00" routeLength="170.60" waitingTime="0.00" waitingCount="0" stopTime="0.00" timeLoss="4.83" rerouteNo="1" devices="tripinfo_flow_E_to_N.1 routing_flow_E_to_N.1" vType="car" speedFactor="0.89" vaporized=""/>
    <tripinfo id="flow_N_to_E.2" depart="27.00" departLane="N1_in_0" departPos="5.10" departSpeed="0.00" departDelay="3.00" arrival="40.00" arrivalLane="E_out_1" arrivalPos="4.67" arrivalSpeed="7.74" duration="13.00" routeLength="108.51" waitingTime="0.00" waitingCount="0" stopTime="0.00" timeLoss="3.52" rerouteNo="1" devices="tripinfo_flow_N_to_E.2 routing_flow_N_to_E.2" vType="car" speedFactor="0.93" vaporized=""/>
    <tripinfo id="flow_N_to_W.2" depart="24.00" departLane="N1_in_0" departPos="5.10" departSpeed="0.00" departDelay="0.00" arrival="44.00" arrivalLane="W_out_0" arrivalPos="89.60" arrivalSpeed="12.91" duration="20.00" routeLength="183.12" waitingTime="0.00" waitingCount="0" stopTime="0.00" timeLoss="5.02" rerouteNo="1" devices="tripinfo_flow_N_to_W.2 routing_flow_N_to_W.2" vType="car" speedFactor="0.99" vaporized=""/>
    <tripinfo id="flow_N_to_E.3" depart="39.00" departLane="N1_in_0" departPos="5.10" departSpeed="0.00" departDelay="3.00" arrival="52.00" arrivalLane="E_out_1" arrivalPos="4.67" arrivalSpeed="10.73" duration="13.00" routeLength="108.51" waitingTime="0.00" waitingCount="0" stopTime="0.00" timeLoss="4.06" rerouteNo="1" devices="tripinfo_flow_N_to_E.3 routing_flow_N_to_E.3" vType="car" speedFactor="1.01" vaporized=""/>
    <tripinfo id="flow_N_to_W.3" depart="36.00" departLane="N1_in_0" departPos="5.10" departSpeed="0.00" departDelay="0.00" arrival="57.00" arrivalLane="W_out_0" arrivalPos="89.60" arrivalSpeed="12.71" duration="21.00" routeLength="183.12" waitingTime="0.00" waitingCount="0" stopTime="0.00" timeLoss="6.55" rerouteNo="1" devices="tripinfo_flow_N_to_W.3 routing_flow_N_to_W.3" vType="car" speedFactor="1.02" vaporized=""/>
    <tripinfo id="flow_E_to_W.1" depart="12.00" departLane="E1_in_0" departPos="5.10" departSpeed="0.00" departDelay="0.00" arrival="64.00" arrivalLane="W_out_0" arrivalPos="89.60" arrivalSpeed="13.15" duration="52.00" routeLength="194.89" waitingTime="27.00" waitingCount="1" stopTime="0.00" timeLoss="37.96" rerouteNo="1" devices="tripinfo_flow_E_to_W.1 routing_flow_E_to_W.1" vType="car" speedFactor="1.05" vaporized=""/>
    <tripinfo id="flow_E_to_W.0" depart="0.00" departLane="E1_in_0" departPos="5.10" departSpeed="0.00" departDelay="0.00" arrival="65.00" arrivalLane="W_out_0" arrivalPos="89.60" arrivalSpeed="13.39" duration="65.00" routeLength="194.89" waitingTime="41.00" waitingCount="1" stopTime="0.00" timeLoss="50.10" rerouteNo="1" devices="tripinfo_flow_E_to_W.0 routing_flow_E_to_W.0" vType="car" speedFactor="1.06" vaporized=""/>
    <tripinfo id="flow_E_to_W.2" depart="24.00" departLane="E1_in_0" departPos="5.10" departSpeed="0.00" departDelay="0.00" arrival="67.00" arrivalLane="W_out_0" arrivalPos="89.60" arrivalSpeed="12.83" duration="43.00" routeLength="194.89" waitingTime="19.00" waitingCount="1" stopTime="0.00" timeLoss="28.76" rerouteNo="1" devices="tripinfo_flow_E_to_W.2 routing_flow_E_to_W.2" vType="car" speedFactor="1.05" vaporized=""/>
    <tripinfo id="flow_E_to_W.3" depart="36.00" departLane="E1_in_0" departPos="5.10" departSpeed="0.00" departDelay="0.00" arrival="67.00" arrivalLane="W_out_1" arrivalPos="89.60" arrivalSpeed="12.00" duration="31.00" routeLength="194.89" waitingTime="6.00" waitingCount="1" stopTime="0.00" timeLoss="15.49" rerouteNo="1" devices="tripinfo_flow_E_to_W.3 routing_flow_E_to_W.3" vType="car" speedFactor="0.94" vaporized=""/>
    <tripinfo id="flow_E_to_N.2" depart="27.00" departLane="E1_in_0" departPos="5.10" departSpeed="0.00" departDelay="3.00" arrival="69.00" arrivalLane="N1_out_0" arrivalPos="67.87" arrivalSpeed="12.99" duration="42.00" routeLength="170.60" waitingTime="17.00" waitingCount="1" stopTime="0.00" timeLoss="29.24" rerouteNo="1" devices="tripinfo_flow_E_to_N.2 routing_flow_E_to_N.2" vType="car" speedFactor="1.12" vaporized=""/>
    <tripinfo id="flow_E_to_W.4" depart="48.00" departLane="E1_in_0" departPos="5.10" departSpeed="0.00" departDelay="0.00" arrival="70.00" arrivalLane="W_out_1" arrivalPos="89.60" arrivalSpeed="11.32" duration="22.00" routeLength="194.89" waitingTime="0.00" waitingCount="0" stopTime="0.00" timeLoss="4.68" rerouteNo="1" devices="tripinfo_flow_E_to_W.4 routing_flow_E_to_W.4" vType="car" speedFactor="0.83" vaporized=""/>
    <tripinfo id="flow_E_to_N.3" depart="39.00" departLane="E1_in_0" departPos="5.10" departSpeed="0.00" departDelay="3.00" arrival="71.00" arrivalLane="N1_out_0" arrivalPos="67.87" arrivalSpeed="13.66" duration="32.00" routeLength="170.60" waitingTime="8.00" waitingCount="1" stopTime="0.00" timeLoss="19.05" rerouteNo="1" devices="tripinfo_flow_E_to_N.3 routing_flow_E_to_N.3" vType="car" speedFactor="1.16" vaporized=""/>
    <tripinfo id="flow_E_to_N.4" depart="51.00" departLane="E1_in_0" departPos="5.10" departSpeed="0.00" departDelay="3.00" arrival="78.00" arrivalLane="N1_out_0" arrivalPos="67.87" arrivalSpeed="11.71" duration="27.00" routeLength="170.60" waitingTime="0.00" waitingCount="0" stopTime="0.00" timeLoss="11.90" rerouteNo="1" devices="tripinfo_flow_E_to_N.4 routing_flow_E_to_N.4" vType="car" speedFactor="0.87" vaporized=""/>
    <tripinfo id="flow_E_to_W.5" depart="60.00" departLane="E1_in_0" departPos="5.10" departSpeed="0.00" departDelay="0.00" arrival="79.00" arrivalLane="W_out_0" arrivalPos="89.60" arrivalSpeed="12.69" duration="19.00" routeLength="194.89" waitingTime="0.00" waitingCount="0" stopTime="0.00" timeLoss="4.25" rerouteNo="1" devices="tripinfo_flow_E_to_W.5 routing_flow_E_to_W.5" vType="car" speedFactor="1.18" vaporized=""/>
    <tripinfo id="flow_E_to_N.5" depart="63.00" departLane="E1_in_0" departPos="5.10" departSpeed="0.00" departDelay="3.00" arrival="82.00" arrivalLane="N1_out_0" arrivalPos="67.87" arrivalSpeed="13.56" duration="19.00" routeLength="170.60" waitingTime="0.00" waitingCount="0" stopTime="0.00" timeLoss="6.04" rerouteNo="1" devices="tripinfo_flow_E_to_N.5 routing_flow_E_to_N.5" vType="car" speedFactor="1.15" vaporized=""/>
    <tripinfo id="flow_W_to_E.0" depart="0.00" departLane="W_in_0" departPos="5.10" departSpeed="0.00" departDelay="0.00" arrival="89.00" arrivalLane="E1_out_0" arrivalPos="67.87" arrivalSpeed="13.59" duration="89.00" routeLength="194.89" waitingTime="64.00" waitingCount="1" stopTime="0.00" timeLoss="74.67" rerouteNo="1" devices="tripinfo_flow_W_to_E.0 routing_flow_W_to_E.0" vType="car" speedFactor="1.03" vaporized=""/>
    <tripinfo id="flow_W_to_N.0" depart="3.00" departLane="W_in_0" departPos="5.10" departSpeed="0.00" departDelay="3.00" arrival="90.00" arrivalLane="N1_out_1" arrivalPos="67.87" arrivalSpeed="11.00" duration="87.00" routeLength="193.44" waitingTime="61.00" waitingCount="1" stopTime="0.00" timeLoss="69.31" rerouteNo="1" devices="tripinfo_flow_W_to_N.0 routing_flow_W_to_N.0" vType="car" speedFactor="0.83" vaporized=""/>
    <tripinfo id="flow_W_to_E.1" depart="12.00" departLane="W_in_0" departPos="5.10" departSpeed="0.00" departDelay="0.00" arrival="91.00" arrivalLane="E1_out_0" arrivalPos="67.87" arrivalSpeed="13.72" duration="79.00" routeLength="194.89" waitingTime="55.00" waitingCount="1" stopTime="0.00" timeLoss="64.48" rerouteNo="1" devices="tripinfo_flow_W_to_E.1 routing_flow_W_to_E.1" vType="car" speedFactor="1.09" vaporized=""/>
    <tripinfo id="flow_W_to_N.1" depart="15.00" departLane="W_in_0" departPos="5.10" departSpeed="0.00" departDelay="3.00" arrival="92.00" arrivalLane="N1_out_1" arrivalPos="67.87" arrivalSpeed="13.29" duration="77.00" routeLength="193.44" waitingTime="52.00" waitingCount="1" stopTime="0.00" timeLoss="61.89" rerouteNo="1" devices="tripinfo_flow_W_to_N.1 routing_flow_W_to_N.1" vType="car" speedFactor="1.03" vaporized=""/>
    <tripinfo id="flow_W_to_E.2" depart="24.00" departLane="W_in_0" departPos="5.10" departSpeed="0.00" departDelay="0.00" arrival="94.00" arrivalLane="E1_out_0" arrivalPos="67.87" arrivalSpeed="11.73" duration="70.00" routeLength="194.89" waitingTime="44.00" waitingCount="1" stopTime="0.00" timeLoss="53.20" rerouteNo="1" devices="tripinfo_flow_W_to_E.2 routing_flow_W_to_E.2" vType="car" speedFactor="0.88" vaporized=""/>
    <tripinfo id="flow_W_to_N.2" depart="27.00" departLane="W_in_0" departPos="5.10" departSpeed="0.00" departDelay="3.00" arrival="94.00" arrivalLane="N1_out_1" arrivalPos="67.87" arrivalSpeed="12.45" duration="67.00" routeLength="193.44" waitingTime="41.00" waitingCount="1" stopTime="0.00" timeLoss="51.08" rerouteNo="1" devices="tripinfo_flow_W_to_N.2 routing_flow_W_to_N.2" vType="car" speedFactor="0.94" vaporized=""/>
    <tripinfo id="flow_W_to_E.3" depart="36.00" departLane="W_in_0" departPos="5.10" departSpeed="0.00" departDelay="0.00" arrival="95.00" arrivalLane="E1_out_0" arrivalPos="67.87" arrivalSpeed="13.03" duration="59.00" routeLength="194.89" waitingTime="34.00" waitingCount="1" stopTime="0.00" timeLoss="44.46" rerouteNo="1" devices="tripinfo_flow_W_to_E.3 routing_flow_W_to_E.3" vType="car" speedFactor="0.97" vaporized=""/>
    <tripinfo id="flow_W_to_N.3" depart="39.00" departLane="W_in_0" departPos="5.10" departSpeed="0.00" departDelay="3.00" arrival="97.00" arrivalLane="N1_out_1" arrivalPos="67.87" arrivalSpeed="11.20" duration="58.00" routeLength="193.44" waitingTime="30.00" waitingCount="1" stopTime="0.00" timeLoss="40.75" rerouteNo="1" devices="tripinfo_flow_W_to_N.3 routing_flow_W_to_N.3" vType="car" speedFactor="0.89" vaporized=""/>
    <tripinfo id="flow_W_to_E.4" depart="48.00" departLane="W_in_0" departPos="5.10" departSpeed="0.00" departDelay="0.00" arrival="97.00" arrivalLane="E1_out_0" arrivalPos="67.87" arrivalSpeed="13.05" duration="49.00" routeLength="194.89" waitingTime="24.00" waitingCount="1" stopTime="0.00" timeLoss="34.59" rerouteNo="1" devices="tripinfo_flow_W_to_E.4 routing_flow_W_to_E.4" vType="car" speedFactor="1.13" vaporized=""/>
    <tripinfo id="flow_W_to_N.4" depart="51.00" departLane="W_in_0" departPos="5.10" departSpeed="0.00" departDelay="3.00" arrival="98.00" arrivalLane="N1_out_1" arrivalPos="67.87" arrivalSpeed="11.92" duration="47.00" routeLength="193.44" waitingTime="20.00" waitingCount="1" stopTime="0.00" timeLoss="31.15" rerouteNo="1" devices="tripinfo_flow_W_to_N.4 routing_flow_W_to_N.4" vType="car" speedFactor="0.93" vaporized=""/>
    <tripinfo id="flow_W_to_E.5" depart="60.00" departLane="W_in_0" departPos="5.10" departSpeed="0.00" departDelay="0.00" arrival="99.00" arrivalLane="E1_out_0" arrivalPos="67.87" arrivalSpeed="13.47" duration="39.00" routeLength="194.89" waitingTime="12.00" waitingCount="1" stopTime="0.00" timeLoss="24.20" rerouteNo="1" devices="tripinfo_flow_W_to_E.5 routing_flow_W_to_E.5" vType="car" speedFactor="0.99" vaporized=""/>
    <tripinfo id="flow_W_to_N.5" depart="63.00" departLane="W_in_0" departPos="5.10" departSpeed="0.00" departDelay="3.00" arrival="100.00" arrivalLane="N1_out_1" arrivalPos="67.87" arrivalSpeed="13.63" duration="37.00" routeLength="193.44" waitingTime="10.00" waitingCount="1" stopTime="0.00" timeLoss="22.27" rerouteNo="1" devices="tripinfo_flow_W_to_N.5 routing_flow_W_to_N.5" vType="car" speedFactor="1.02" vaporized=""/>
    <tripinfo id="flow_W_to_E.6" depart="72.00" departLane="W_in_0" departPos="5.10" departSpeed="0.00" departDelay="0.00" arrival="100.00" arrivalLane="E1_out_0" arrivalPos="67.87" arrivalSpeed="13.73" duration="28.00" routeLength="194.89" waitingTime="2.00" waitingCount="1" stopTime="0.00" timeLoss="13.95" rerouteNo="1" devices="tripinfo_flow_W_to_E.6 routing_flow_W_to_E.6" vType="car" speedFactor="1.03" vaporized=""/>
    <tripinfo id="flow_W_to_E.7" depart="84.00" departLane="W_in_0" departPos="5.10" departSpeed="0.00" departDelay="0.00" arrival="102.00" arrivalLane="E1_out_0" arrivalPos="67.87" arrivalSpeed="13.75" duration="18.00" routeLength="194.89" waitingTime="0.00" waitingCount="0" stopTime="0.00" timeLoss="3.86" rerouteNo="1" devices="tripinfo_flow_W_to_E.7 routing_flow_W_to_E.7" vType="car" speedFactor="1.00" vaporized=""/>
    <tripinfo id="flow_W_to_N.6" depart="75.00" departLane="W_in_0" departPos="5.10" departSpeed="0.00" departDelay="3.00" arrival="103.00" arrivalLane="N1_out_1" arrivalPos="67.87" arrivalSpeed="12.38" duration="28.00" routeLength="193.44" waitingTime="0.00" waitingCount="0" stopTime="0.00" timeLoss="11.98" rerouteNo="1" devices="tripinfo_flow_W_to_N.6 routing_flow_W_to_N.6" vType="car" speedFactor="0.96" vaporized=""/>
    <tripinfo id="flow_W_to_N.7" depart="87.00" departLane="W_in_0" departPos="5.10" departSpeed="0.00" departDelay="3.00" arrival="108.00" arrivalLane="N1_out_1" arrivalPos="67.87" arrivalSpeed="12.03" duration="21.00" routeLength="193.44" waitingTime="0.00" waitingCount="0" stopTime="0.00" timeLoss="4.28" rerouteNo="1" devices="tripinfo_flow_W_to_N.7 routing_flow_W_to_N.7" vType="car" speedFactor="0.90" vaporized=""/>
    <tripinfo id="flow_E_to_N.6" depart="75.00" departLane="E1_in_0" departPos="5.10" departSpeed="0.00" departDelay="3.00" arrival="111.00" arrivalLane="N1_out_0" arrivalPos="67.87" arrivalSpeed="13.65" duration="36.00" routeLength="170.60" waitingTime="14.00" waitingCount="1" stopTime="0.00" timeLoss="22.90" rerouteNo="1" devices="tripinfo_flow_E_to_N.6 routing_flow_E_to_N.6" vType="car" speedFactor="1.18" vaporized=""/>
    <tripinfo id="flow_W_to_E.8" depart="96.00" departLane="W_in_0" departPos="5.10" departSpeed="0.00" departDelay="0.00" arrival="114.00" arrivalLane="E1_out_0" arrivalPos="67.87" arrivalSpeed="13.10" duration="18.00" routeLength="194.89" waitingTime="0.00" waitingCount="0" stopTime="0.00" timeLoss="3.76" rerouteNo="1" devices="tripinfo_flow_W_to_E.8 routing_flow_W_to_E.8" vType="car" speedFactor="1.02" vaporized=""/>
    <tripinfo id="flow_W_to_N.8" depart="99.00" departLane="W_in_0" departPos="5.10" departSpeed="0.00" departDelay="3.00" arrival="119.00" arrivalLane="N1_out_1" arrivalPos="67.87" arrivalSpeed="13.40" duration="20.00" routeLength="193.44" waitingTime="0.00" waitingCount="0" stopTime="0.00" timeLoss="4.92" rerouteNo="1" devices="tripinfo_flow_W_to_N.8 routing_flow_W_to_N.8" vType="car" speedFactor="1.10" vaporized=""/>
    <tripinfo id="flow_N_to_E.4" depart="51.00" departLane="N1_in_0" departPos="5.10" departSpeed="0.00" departDelay="3.00" arrival="121.00" arrivalLane="E_out_1" arrivalPos="4.67" arrivalSpeed="9.87" duration="70.00" routeLength="108.51" waitingTime="52.00" waitingCount="1" stopTime="0.00" timeLoss="60.85" rerouteNo="1" devices="tripinfo_flow_N_to_E.4 routing_flow_N_to_E.4" vType="car" speedFactor="0.95" vaporized=""/>
    <tripinfo id="flow_E_to_N.7" depart="87.00" departLane="E1_in_0" departPos="5.10" departSpeed="0.00" departDelay="3.00" arrival="122.00" arrivalLane="N1_out_0" arrivalPos="67.87" arrivalSpeed="13.08" duration="35.00" routeLength="170.60" waitingTime="7.00" waitingCount="2" stopTime="0.00" timeLoss="21.95" rerouteNo="1" devices="tripinfo_flow_E_to_N.7 routing_flow_E_to_N.7" vType="car" speedFactor="1.04" vaporized=""/>
    <tripinfo id="flow_N_to_E.5" depart="63.00" departLane="N1_in_0" departPos="5.10" departSpeed="0.00" departDelay="3.00" arrival="124.00" arrivalLane="E_out_1" arrivalPos="4.67" arrivalSpeed="11.94" duration="61.00" routeLength="108.51" waitingTime="44.00" waitingCount="1" stopTime="0.00" timeLoss="52.19" rerouteNo="1" devices="tripinfo_flow_N_to_E.5 routing_flow_N_to_E.5" vType="car" speedFactor="1.17" vaporized=""/>
    <tripinfo id="flow_N_to_E.6" depart="75.00" departLane="N1_in_0" departPos="5.10" departSpeed="0.00" departDelay="3.00" arrival="127.00" arrivalLane="E_out_1" arrivalPos="4.67" arrivalSpeed="9.06" duration="52.00" routeLength="108.51" waitingTime="34.00" waitingCount="1" stopTime="0.00" timeLoss="42.23" rerouteNo="1" devices="tripinfo_flow_N_to_E.6 routing_flow_N_to_E.6" vType="car" speedFactor="0.90" vaporized=""/>
    <tripinfo id="flow_E_to_N.8" depart="99.00" departLane="E1_in_0" departPos="5.10" departSpeed="0.00" departDelay="3.00" arrival="127.00" arrivalLane="N1_out_0" arrivalPos="67.87" arrivalSpeed="11.08" duration="28.00" routeLength="170.60" waitingTime="4.00" waitingCount="1" stopTime="0.00" timeLoss="12.94" rerouteNo="1" devices="tripinfo_flow_E_to_N.8 routing_flow_E_to_N.8" vType="car" speedFactor="0.85" vaporized=""/>
    <tripinfo id="flow_N_to_W.4" depart="48.00" departLane="N1_in_0" departPos="5.10" departSpeed="0.00" departDelay="0.00" arrival="128.00" arrivalLane="W_out_0" arrivalPos="89.60" arrivalSpeed="12.73" duration="80.00" routeLength="183.12" waitingTime="55.00" waitingCount="1" stopTime="0.00" timeLoss="64.12" rerouteNo="1" devices="tripinfo_flow_N_to_W.4 routing_flow_N_to_W.4" vType="car" speedFactor="0.92" vaporized=""/>
    <tripinfo id="flow_N_to_E.7" depart="87.00" departLane="N1_in_0" departPos="5.10" departSpeed="0.00" departDelay="3.00" arrival="129.00" arrivalLane="E_out_1" arrivalPos="4.67" arrivalSpeed="12.04" duration="42.00" routeLength="108.51" waitingTime="24.00" waitingCount="1" stopTime="0.00" timeLoss="33.00" rerouteNo="1" devices="tripinfo_flow_N_to_E.7 routing_flow_N_to_E.7" vType="car" speedFactor="1.09" vaporized=""/>
    <tripinfo id="flow_N_to_E.8" depart="99.00" departLane="N1_in_0" departPos="5.10" departSpeed="0.00" departDelay="3.00" arrival="131.00" arrivalLane="E_out_1" arrivalPos="4.67" arrivalSpeed="11.76" duration="32.00" routeLength="108.51" waitingTime="13.00" waitingCount="1" stopTime="0.00" timeLoss="23.19" rerouteNo="1" devices="tripinfo_flow_N_to_E.8 routing_flow_N_to_E.8" vType="car" speedFactor="1.17" vaporized=""/>
    <tripinfo id="flow_N_to_W.5" depart="60.00" departLane="N1_in_0" departPos="5.10" departSpeed="0.00" departDelay="0.00" arrival="132.00" arrivalLane="W_out_0" arrivalPos="89.60" arrivalSpeed="12.71" duration="72.00" routeLength="183.12" waitingTime="47.00" waitingCount="1" stopTime="0.00" timeLoss="57.12" rerouteNo="1" devices="tripinfo_flow_N_to_W.5 routing_flow_N_to_W.5" vType="car" speedFactor="1.01" vaporized=""/>
    <tripinfo id="flow_N_to_E.9" depart="111.00" departLane="N1_in_0" departPos="5.10" departSpeed="0.00" departDelay="3.00" arrival="133.00" arrivalLane="E_out_1" arrivalPos="4.67" arrivalSpeed="12.78" duration="22.00" routeLength="108.51" waitingTime="2.00" waitingCount="1" stopTime="0.00" timeLoss="13.07" rerouteNo="1" devices="tripinfo_flow_N_to_E.9 routing_flow_N_to_E.9" vType="car" speedFactor="1.14" vaporized=""/>
    <tripinfo id="flow_N_to_W.6" depart="72.00" departLane="N1_in_0" departPos="5.10" departSpeed="0.00" departDelay="0.00" arrival="134.00" arrivalLane="W_out_0" arrivalPos="89.60" arrivalSpeed="13.13" duration="62.00" routeLength="183.12" waitingTime="36.00" waitingCount="1" stopTime="0.00" timeLoss="47.49" rerouteNo="1" devices="tripinfo_flow_N_to_W.6 routing_flow_N_to_W.6" vType="car" speedFactor="1.10" vaporized=""/>
    <tripinfo id="flow_N_to_E.10" depart="123.00" departLane="N1_in_0" departPos="5.10" departSpeed="0.00" departDelay="3.00" arrival="136.00" arrivalLane="E_out_1" arrivalPos="4.67" arrivalSpeed="9.84" duration="13.00" routeLength="108.51" waitingTime="0.00" waitingCount="0" stopTime="0.00" timeLoss="3.85" rerouteNo="1" devices="tripinfo_flow_N_to_E.10 routing_flow_N_to_E.10" vType="car" speedFactor="0.99" vaporized=""/>
    <tripinfo id="flow_N_to_W.7" depart="84.00" departLane="N1_in_0" departPos="5.10" departSpeed="0.00" departDelay="0.00" arrival="137.00" arrivalLane="W_out_0" arrivalPos="89.60" arrivalSpeed="13.81" duration="53.00" routeLength="183.12" waitingTime="25.00" waitingCount="1" stopTime="0.00" timeLoss="38.39" rerouteNo="1" devices="tripinfo_flow_N_to_W.7 routing_flow_N_to_W.7" vType="car" speedFactor="1.04" vaporized=""/>
    <tripinfo id="flow_N_to_W.8" depart="96.00" departLane="N1_in_0" departPos="5.10" departSpeed="0.00" departDelay="0.00" arrival="140.00" arrivalLane="W_out_0" arrivalPos="89.60" arrivalSpeed="11.04" duration="44.00" routeLength="183.12" waitingTime="16.00" waitingCount="1" stopTime="0.00" timeLoss="27.76" rerouteNo="1" devices="tripinfo_flow_N_to_W.8 routing_flow_N_to_W.8" vType="car" speedFactor="0.85" vaporized=""/>
    <tripinfo id="flow_N_to_W.9" depart="108.00" departLane="N1_in_0" departPos="5.10" departSpeed="0.00" departDelay="0.00" arrival="143.00" arrivalLane="W_out_0" arrivalPos="89.60" arrivalSpeed="11.80" duration="35.00" routeLength="183.12" waitingTime="5.00" waitingCount="1" stopTime="0.00" timeLoss="18.68" rerouteNo="1" devices="tripinfo_flow_N_to_W.9 routing_flow_N_to_W.9" vType="car" speedFactor="0.90" vaporized=""/>
    <tripinfo id="flow_N_to_W.10" depart="120.00" departLane="N1_in_0" departPos="5.10" departSpeed="0.00" departDelay="0.00" arrival="145.00" arrivalLane="W_out_0" arrivalPos="89.60" arrivalSpeed="12.73" duration="25.00" routeLength="183.12" waitingTime="0.00" waitingCount="0" stopTime="0.00" timeLoss="10.17" rerouteNo="1" devices="tripinfo_flow_N_to_W.10 routing_flow_N_to_W.10" vType="car" speedFactor="1.02" vaporized=""/>
    <tripinfo id="flow_N_to_E.11" depart="135.00" departLane="N1_in_0" departPos="5.10" departSpeed="0.00" departDelay="3.00" arrival="148.00" arrivalLane="E_out_1" arrivalPos="4.67" arrivalSpeed="10.86" duration="13.00" routeLength="108.51" waitingTime="0.00" waitingCount="0" stopTime="0.00" timeLoss="3.98" rerouteNo="1" devices="tripinfo_flow_N_to_E.11 routing_flow_N_to_E.11" vType="car" speedFactor="1.02" vaporized=""/>
    <tripinfo id="flow_N_to_W.11" depart="132.00" departLane="N1_in_0" departPos="5.10" departSpeed="0.00" departDelay="0.00" arrival="152.00" arrivalLane="W_out_0" arrivalPos="89.60" arrivalSpeed="13.08" duration="20.00" routeLength="183.12" waitingTime="0.00" waitingCount="0" stopTime="0.00" timeLoss="5.75" rerouteNo="1" devices="tripinfo_flow_N_to_W.11 routing_flow_N_to_W.11" vType="car" speedFactor="1.04" vaporized=""/>
    <tripinfo id="flow_N_to_E.12" depart="147.00" departLane="N1_in_0" departPos="5.10" departSpeed="0.00" departDelay="3.00" arrival="161.00" arrivalLane="E_out_1" arrivalPos="4.67" arrivalSpeed="9.65" duration="14.00" routeLength="108.51" waitingTime="0.00" waitingCount="0" stopTime="0.00" timeLoss="4.83" rerouteNo="1" devices="tripinfo_flow_N_to_E.12 routing_flow_N_to_E.12" vType="car" speedFactor="0.98" vaporized=""/>
    <tripinfo id="flow_N_to_W.12" depart="144.00" departLane="N1_in_0" departPos="5.10" departSpeed="0.00" departDelay="0.00" arrival="164.00" arrivalLane="W_out_0" arrivalPos="89.60" arrivalSpeed="12.26" duration="20.00" routeLength="183.12" waitingTime="0.00" waitingCount="0" stopTime="0.00" timeLoss="5.19" rerouteNo="1" devices="tripinfo_flow_N_to_W.12 routing_flow_N_to_W.12" vType="car" speedFactor="0.96" vaporized=""/>
    <tripinfo id="flow_N_to_W.13" depart="156.00" departLane="N1_in_0" departPos="5.10" departSpeed="0.00" departDelay="0.00" arrival="176.00" arrivalLane="W_out_0" arrivalPos="89.60" arrivalSpeed="13.32" duration="20.00" routeLength="183.12" waitingTime="0.00" waitingCount="0" stopTime="0.00" timeLoss="5.42" rerouteNo="1" devices="tripinfo_flow_N_to_W.13 routing_flow_N_to_W.13" vType="car" speedFactor="1.03" vaporized=""/>
    <tripinfo id="flow_E_to_W.6" depart="72.00" departLane="E1_in_0" departPos="5.10" departSpeed="0.00" departDelay="0.00" arrival="181.00" arrivalLane="W_out_0" arrivalPos="89.60" arrivalSpeed="12.63" duration="109.00" routeLength="194.89" waitingTime="86.00" waitingCount="1" stopTime="0.00" timeLoss="94.12" rerouteNo="1" devices="tripinfo_flow_E_to_W.6 routing_flow_E_to_W.6" vType="car" speedFactor="0.97" vaporized=""/>
    <tripinfo id="flow_E_to_W.7" depart="84.00" departLane="E1_in_0" departPos="5.10" departSpeed="0.00" departDelay="0.00" arrival="181.00" arrivalLane="W_out_1" arrivalPos="89.60" arrivalSpeed="13.26" duration="97.00" routeLength="194.89" waitingTime="72.00" waitingCount="1" stopTime="0.00" timeLoss="82.26" rerouteNo="1" devices="tripinfo_flow_E_to_W.7 routing_flow_E_to_W.7" vType="car" speedFactor="1.09" vaporized=""/>
    <tripinfo id="flow_E_to_W.8" depart="96.00" departLane="E1_in_0" departPos="5.10" departSpeed="0.00" departDelay="0.00" arrival="184.00" arrivalLane="W_out_1" arrivalPos="89.60" arrivalSpeed="11.01" duration="88.00" routeLength="194.89" waitingTime="64.00" waitingCount="1" stopTime="0.00" timeLoss="71.91" rerouteNo="1" devices="tripinfo_flow_E_to_W.8 routing_flow_E_to_W.8" vType="car" speedFactor="0.88" vaporized=""/>
    <tripinfo id="flow_E_to_W.9" depart="108.00" departLane="E1_in_0" departPos="5.10" departSpeed="0.00" departDelay="0.00" arrival="184.00" arrivalLane="W_out_0" arrivalPos="89.60" arrivalSpeed="13.26" duration="76.00" routeLength="194.89" waitingTime="52.00" waitingCount="1" stopTime="0.00" timeLoss="61.71" rerouteNo="1" devices="tripinfo_flow_E_to_W.9 routing_flow_E_to_W.9" vType="car" speedFactor="1.00" vaporized=""/>
    <tripinfo id="flow_E_to_W.10" depart="120.00" departLane="E1_in_0" departPos="5.10" departSpeed="0.00" departDelay="0.00" arrival="186.00" arrivalLane="W_out_1" arrivalPos="89.60" arrivalSpeed="12.75" duration="66.00" routeLength="194.89" waitingTime="40.00" waitingCount="1" stopTime="0.00" timeLoss="51.55" rerouteNo="1" devices="tripinfo_flow_E_to_W.10 routing_flow_E_to_W.10" vType="car" speedFactor="1.08" vaporized=""/>
    <tripinfo id="flow_E_to_N.9" depart="111.00" departLane="E1_in_0" departPos="5.10" departSpeed="0.00" departDelay="3.00" arrival="187.00" arrivalLane="N1_out_0" arrivalPos="67.87" arrivalSpeed="13.50" duration="76.00" routeLength="183.11" waitingTime="49.00" waitingCount="1" stopTime="0.00" timeLoss="61.69" rerouteNo="1" devices="tripinfo_flow_E_to_N.9 routing_flow_E_to_N.9" vType="car" speedFactor="1.00" vaporized=""/>
    <tripinfo id="flow_E_to_W.11" depart="132.00" departLane="E1_in_0" departPos="5.10" departSpeed="0.00" departDelay="0.00" arrival="188.00" arrivalLane="W_out_1" arrivalPos="89.60" arrivalSpeed="12.07" duration="56.00" routeLength="194.89" waitingTime="30.00" waitingCount="1" stopTime="0.00" timeLoss="39.94" rerouteNo="1" devices="tripinfo_flow_E_to_W.11 routing_flow_E_to_W.11" vType="car" speedFactor="0.91" vaporized=""/>
    <tripinfo id="flow_E_to_N.10" depart="123.00" departLane="E1_in_0" departPos="5.10" departSpeed="0.00" departDelay="3.00" arrival="190.00" arrivalLane="N1_out_0" arrivalPos="67.87" arrivalSpeed="12.67" duration="67.00" routeLength="170.60" waitingTime="41.00" waitingCount="1" stopTime="0.00" timeLoss="53.87" rerouteNo="1" devices="tripinfo_flow_E_to_N.10 routing_flow_E_to_N.10" vType="car" speedFactor="1.12" vaporized=""/>