<?xml version="1.0" encoding="UTF-8"?>

<!-- generated on 2025-09-23 16:07:33 by Eclipse SUMO sumo Version 1.18.0
<configuration xmlns:xsi="http://www.w3.org/2001/XMLSchema-instance" xsi:noNamespaceSchemaLocation="http://sumo.dlr.de/xsd/sumoConfiguration.xsd">

    <input>
        <net-file value="data/net.xml"/>
        <route-files value="data/routes.xml"/>
        <additional-files value="tl_logic.xml"/>
    </input>

    <output>
        <tripinfo-output value="tripinfo.xml"/>
    </output>

    <report>
        <verbose value="true"/>
    </report>

</configuration>
-->

<tripinfos xmlns:xsi="http://www.w3.org/2001/XMLSchema-instance" xsi:noNamespaceSchemaLocation="http://sumo.dlr.de/xsd/tripinfo_file.xsd">
    <tripinfo id="flow_N_to_E.0" depart="3.00" departLane="N1_in_0" departPos="5.10" departSpeed="0.00" departDelay="3.00" arrival="16.00" arrivalLane="E_out_1" arrivalPos="4.67" arrivalSpeed="11.96" duration="13.00" routeLength="108.51" waitingTime="0.00" waitingCount="0" stopTime="0.00" timeLoss="3.92" rerouteNo="1" devices="tripinfo_flow_N_to_E.0 routing_flow_N_to_E.0" vType="car" speedFactor="1.08" vaporized=""/>
    <tripinfo id="flow_N_to_W.0" depart="0.00" departLane="N1_in_0" departPos="5.10" departSpeed="0.00" departDelay="0.00" arrival="20.00" arrivalLane="W_out_0" arrivalPos="89.60" arrivalSpeed="13.39" duration="20.00" routeLength="183.12" waitingTime="0.00" waitingCount="0" stopTime="0.00" timeLoss="5.77" rerouteNo="1" devices="tripinfo_flow_N_to_W.0 routing_flow_N_to_W.0" vType="car" speedFactor="1.01" vaporized=""/>
    <tripinfo id="flow_E_to_N.0" depart="3.00" departLane="E1_in_0" departPos="5.10" departSpeed="0.00" departDelay="3.00" arrival="22.00" arrivalLane="N1_out_0" arrivalPos="67.87" arrivalSpeed="12.66" duration="19.00" routeLength="170.60" waitingTime="0.00" waitingCount="0" stopTime="0.00" timeLoss="5.38" rerouteNo="1" devices="tripinfo_flow_E_to_N.0 routing_flow_E_to_N.0" vType="car" speedFactor="0.94" vaporized=""/>
    <tripinfo id="flow_N_to_E.1" depart="15.00" departLane="N1_in_0" departPos="5.10" departSpeed="0.00" departDelay="3.00" arrival="29.00" arrivalLane="E_out_1" arrivalPos="4.67" arrivalSpeed="9.81" duration="14.00" routeLength="108.51" waitingTime="0.00" waitingCount="0" stopTime="0.00" timeLoss="3.72" rerouteNo="1" devices="tripinfo_flow_N_to_E.1 routing_flow_N_to_E.1" vType="car" speedFactor="0.86" vaporized=""/>
    <tripinfo id="flow_N_to_W.1" depart="12.00" departLane="N1_in_0" departPos="5.10" departSpeed="0.00" departDelay="0.00" arrival="32.00" arrivalLane="W_out_0" arrivalPos="89.60" arrivalSpeed="11.94" duration="20.00" routeLength="183.12" waitingTime="0.00" waitingCount="0" stopTime="0.00" timeLoss="4.65" rerouteNo="1" devices="tripinfo_flow_N_to_W.1 routing_flow_N_to_W.1" vType="car" speedFactor="0.94" vaporized=""/>
    <tripinfo id="flow_E_to_N.1" depart="15.00" departLane="E1_in_0" departPos="5.10" departSpeed="0.00" departDelay="3.00" arrival="34.00" arrivalLane="N1_out_0" arrivalPos="67.87" arrivalSpeed="11.98" duration="19.00" routeLength="170.60" waitingTime="0.00" waitingCount="0" stopTime="0.00" timeLoss="4.83" rerouteNo="1" devices="tripinfo_flow_E_to_N.1 routing_flow_E_to_N.1" vType="car" speedFactor="0.89" vaporized=""/>
    <tripinfo id="flow_N_to_E.2" depart="27.00" departLane="N1_in_0" departPos="5.10" departSpeed="0.00" departDelay="3.00" arrival="40.00" arrivalLane="E_out_1" arrivalPos="4.67" arrivalSpeed="7.74" duration="13.00" routeLength="108.51" waitingTime="0.00" waitingCount="0" stopTime="0.00" timeLoss="3.52" rerouteNo="1" devices="tripinfo_flow_N_to_E.2 routing_flow_N_to_E.2" vType="car" speedFactor="0.93" vaporized=""/>
    <tripinfo id="flow_N_to_W.2" depart="24.00" departLane="N1_in_0" departPos="5.10" departSpeed="0.00" departDelay="0.00" arrival="44.00" arrivalLane="W_out_0" arrivalPos="89.60" arrivalSpeed="12.91" duration="20.00" routeLength="183.12" waitingTime="0.00" waitingCount="0" stopTime="0.00" timeLoss="5.02" rerouteNo="1" devices="tripinfo_flow_N_to_W.2 routing_flow_N_to_W.2" vType="car" speedFactor="0.99" vaporized=""/>
    <tripinfo id="flow_N_to_E.3" depart="39.00" departLane="N1_in_0" departPos="5.10" departSpeed="0.00" departDelay="3.00" arrival="52.00" arrivalLane="E_out_1" arrivalPos="4.67" arrivalSpeed="10.73" duration="13.00" routeLength="108.51" waitingTime="0.00" waitingCount="0" stopTime="0.00" timeLoss="4.06" rerouteNo="1" devices="tripinfo_flow_N_to_E.3 routing_flow_N_to_E.3" vType="car" speedFactor="1.01" vaporized=""/>
    <tripinfo id="flow_N_to_W.3" depart="36.00" departLane="N1_in_0" departPos="5.10" departSpeed="0.00" departDelay="0.00" arrival="57.00" arrivalLane="W_out_0" arrivalPos="89.60" arrivalSpeed="12.71" duration="21.00" routeLength="183.12" waitingTime="0.00" waitingCount="0" stopTime="0.00" timeLoss="6.55" rerouteNo="1" devices="tripinfo_flow_N_to_W.3 routing_flow_N_to_W.3" vType="car" speedFactor="1.02" vaporized=""/>
    <tripinfo id="flow_N_to_E.4" depart="51.00" departLane="N1_in_0" departPos="5.10" departSpeed="0.00" departDelay="3.00" arrival="64.00" arrivalLane="E_out_1" arrivalPos="4.67" arrivalSpeed="8.41" duration="13.00" routeLength="108.51" waitingTime="0.00" waitingCount="0" stopTime="0.00" timeLoss="4.10" rerouteNo="1" devices="tripinfo_flow_N_to_E.4 routing_flow_N_to_E.4" vType="car" speedFactor="0.95" vaporized=""/>
    <tripinfo id="flow_N_to_W.4" depart="48.00" departLane="N1_in_0" departPos="5.10" departSpeed="0.00" departDelay="0.00" arrival="69.00" arrivalLane="W_out_0" arrivalPos="89.60" arrivalSpeed="12.21" duration="21.00" routeLength="183.12" waitingTime="0.00" waitingCount="0" stopTime="0.00" timeLoss="5.59" rerouteNo="1" devices="tripinfo_flow_N_to_W.4 routing_flow_N_to_W.4" vType="car" speedFactor="0.92" vaporized=""/>
    <tripinfo id="flow_N_to_E.5" depart="63.00" departLane="N1_in_0" departPos="5.10" departSpeed="0.00" departDelay="3.00" arrival="75.00" arrivalLane="E_out_1" arrivalPos="4.67" arrivalSpeed="11.94" duration="12.00" routeLength="108.51" waitingTime="0.00" waitingCount="0" stopTime="0.00" timeLoss="3.35" rerouteNo="1" devices="tripinfo_flow_N_to_E.5 routing_flow_N_to_E.5" vType="car" speedFactor="1.17" vaporized=""/>
    <tripinfo id="flow_N_to_W.5" depart="60.00" departLane="N1_in_0" departPos="5.10" departSpeed="0.00" departDelay="0.00" arrival="80.00" arrivalLane="W_out_0" arrivalPos="89.60" arrivalSpeed="13.54" duration="20.00" routeLength="183.12" waitingTime="0.00" waitingCount="0" stopTime="0.00" timeLoss="5.82" rerouteNo="1" devices="tripinfo_flow_N_to_W.5 routing_flow_N_to_W.5" vType="car" speedFactor="1.01" vaporized=""/>
    <tripinfo id="flow_N_to_E.6" depart="75.00" departLane="N1_in_0" departPos="5.10" departSpeed="0.00" departDelay="3.00" arrival="89.00" arrivalLane="E_out_1" arrivalPos="4.67" arrivalSpeed="9.42" duration="14.00" routeLength="108.51" waitingTime="0.00" waitingCount="0" stopTime="0.00" timeLoss="4.05" rerouteNo="1" devices="tripinfo_flow_N_to_E.6 routing_flow_N_to_E.6" vType="car" speedFactor="0.90" vaporized=""/>
    <tripinfo id="flow_N_to_W.6" depart="72.00" departLane="N1_in_0" departPos="5.10" departSpeed="0.00" departDelay="0.00" arrival="91.00" arrivalLane="W_out_0" arrivalPos="89.60" arrivalSpeed="13.69" duration="19.00" routeLength="183.12" waitingTime="0.00" waitingCount="0" stopTime="0.00" timeLoss="4.59" rerouteNo="1" devices="tripinfo_flow_N_to_W.6 routing_flow_N_to_W.6" vType="car" speedFactor="1.10" vaporized=""/>
    <tripinfo id="flow_N_to_E.7" depart="87.00" departLane="N1_in_0" departPos="5.10" departSpeed="0.00" departDelay="3.00" arrival="100.00" arrivalLane="E_out_1" arrivalPos="4.67" arrivalSpeed="10.79" duration="13.00" routeLength="108.51" waitingTime="0.00" waitingCount="0" stopTime="0.00" timeLoss="4.02" rerouteNo="1" devices="tripinfo_flow_N_to_E.7 routing_flow_N_to_E.7" vType="car" speedFactor="1.09" vaporized=""/>
    <tripinfo id="flow_N_to_W.7" depart="84.00" departLane="N1_in_0" departPos="5.10" departSpeed="0.00" departDelay="0.00" arrival="104.00" arrivalLane="W_out_0" arrivalPos="89.60" arrivalSpeed="12.74" duration="20.00" routeLength="183.12" waitingTime="0.00" waitingCount="0" stopTime="0.00" timeLoss="5.92" rerouteNo="1" devices="tripinfo_flow_N_to_W.7 routing_flow_N_to_W.7" vType="car" speedFactor="1.04" vaporized=""/>
    <tripinfo id="flow_N_to_E.8" depart="99.00" departLane="N1_in_0" departPos="5.10" departSpeed="0.00" departDelay="3.00" arrival="111.00" arrivalLane="E_out_1" arrivalPos="4.67" arrivalSpeed="10.68" duration="12.00" routeLength="108.51" waitingTime="0.00" waitingCount="0" stopTime="0.00" timeLoss="3.54" rerouteNo="1" devices="tripinfo_flow_N_to_E.8 routing_flow_N_to_E.8" vType="car" speedFactor="1.17" vaporized=""/>
    <tripinfo id="flow_N_to_W.8" depart="96.00" departLane="N1_in_0" departPos="5.10" departSpeed="0.00" departDelay="0.00" arrival="117.00" arrivalLane="W_out_0" arrivalPos="89.60" arrivalSpeed="10.98" duration="21.00" routeLength="183.12" waitingTime="0.00" waitingCount="0" stopTime="0.00" timeLoss="4.55" rerouteNo="1" devices="tripinfo_flow_N_to_W.8 routing_flow_N_to_W.8" vType="car" speedFactor="0.85" vaporized=""/>
    <tripinfo id="flow_N_to_E.9" depart="111.00" departLane="N1_in_0" departPos="5.10" departSpeed="0.00" departDelay="3.00" arrival="124.00" arrivalLane="E_out_1" arrivalPos="4.67" arrivalSpeed="11.61" duration="13.00" routeLength="108.51" waitingTime="0.00" waitingCount="0" stopTime="0.00" timeLoss="4.09" rerouteNo="1" devices="tripinfo_flow_N_to_E.9 routing_flow_N_to_E.9" vType="car" speedFactor="1.14" vaporized=""/>
    <tripinfo id="flow_N_to_W.9" depart="108.00" departLane="N1_in_0" departPos="5.10" departSpeed="0.00" departDelay="0.00" arrival="130.00" arrivalLane="W_out_0" arrivalPos="89.60" arrivalSpeed="11.74" duration="22.00" routeLength="183.12" waitingTime="0.00" waitingCount="0" stopTime="0.00" timeLoss="5.77" rerouteNo="1" devices="tripinfo_flow_N_to_W.9 routing_flow_N_to_W.9" vType="car" speedFactor="0.90" vaporized=""/>
    <tripinfo id="flow_E_to_W.0" depart="0.00" departLane="E1_in_0" departPos="5.10" departSpeed="0.00" departDelay="0.00" arrival="136.00" arrivalLane="W_out_1" arrivalPos="89.60" arrivalSpeed="13.79" duration="136.00" routeLength="194.89" waitingTime="113.00" waitingCount="1" stopTime="0.00" timeLoss="121.83" rerouteNo="1" devices="tripinfo_flow_E_to_W.0 routing_flow_E_to_W.0" vType="car" speedFactor="1.06" vaporized=""/>
    <tripinfo id="flow_E_to_W.1" depart="12.00" departLane="E1_in_0" departPos="5.10" departSpeed="0.00" departDelay="0.00" arrival="136.00" arrivalLane="W_out_0" arrivalPos="89.60" arrivalSpeed="12.80" duration="124.00" routeLength="194.89" waitingTime="99.00" waitingCount="1" stopTime="0.00" timeLoss="109.36" rerouteNo="1" devices="tripinfo_flow_E_to_W.1 routing_flow_E_to_W.1" vType="car" speedFactor="1.05" vaporized=""/>
    <tripinfo id="flow_E_to_W.2" depart="24.00" departLane="E1_in_0" departPos="5.10" departSpeed="0.00" departDelay="0.00" arrival="139.00" arrivalLane="W_out_0" arrivalPos="89.60" arrivalSpeed="13.54" duration="115.00" routeLength="194.89" waitingTime="91.00" waitingCount="1" stopTime="0.00" timeLoss="100.63" rerouteNo="1" devices="tripinfo_flow_E_to_W.2 routing_flow_E_to_W.2" vType="car" speedFactor="1.05" vaporized=""/>
    <tripinfo id="flow_E_to_W.3" depart="36.00" departLane="E1_in_0" departPos="5.10" departSpeed="0.00" departDelay="0.00" arrival="139.00" arrivalLane="W_out_1" arrivalPos="89.60" arrivalSpeed="12.51" duration="103.00" routeLength="194.89" waitingTime="78.00" waitingCount="1" stopTime="0.00" timeLoss="87.44" rerouteNo="1" devices="tripinfo_flow_E_to_W.3 routing_flow_E_to_W.3" vType="car" speedFactor="0.94" vaporized=""/>
    <tripinfo id="flow_E_to_N.2" depart="27.00" departLane="E1_in_0" departPos="5.10" departSpeed="0.00" departDelay="3.00" arrival="140.00" arrivalLane="N1_out_0" arrivalPos="67.87" arrivalSpeed="12.99" duration="113.00" routeLength="170.60" waitingTime="89.00" waitingCount="1" stopTime="0.00" timeLoss="99.83" rerouteNo="1" devices="tripinfo_flow_E_to_N.2 routing_flow_E_to_N.2" vType="car" speedFactor="1.12" vaporized=""/>
    <tripinfo id="flow_E_to_W.4" depart="48.00" departLane="E1_in_0" departPos="5.10" departSpeed="0.00" departDelay="0.00" arrival="142.00" arrivalLane="W_out_1" arrivalPos="89.60" arrivalSpeed="10.84" duration="94.00" routeLength="194.89" waitingTime="68.00" waitingCount="1" stopTime="0.00" timeLoss="76.47" rerouteNo="1" devices="tripinfo_flow_E_to_W.4 routing_flow_E_to_W.4" vType="car" speedFactor="0.83" vaporized=""/>
    <tripinfo id="flow_E_to_N.3" depart="39.00" departLane="E1_in_0" departPos="5.10" departSpeed="0.00" departDelay="3.00" arrival="143.00" arrivalLane="N1_out_0" arrivalPos="67.87" arrivalSpeed="13.18" duration="104.00" routeLength="170.60" waitingTime="80.00" waitingCount="1" stopTime="0.00" timeLoss="91.46" rerouteNo="1" devices="tripinfo_flow_E_to_N.3 routing_flow_E_to_N.3" vType="car" speedFactor="1.16" vaporized=""/>
    <tripinfo id="flow_E_to_W.5" depart="60.00" departLane="E1_in_0" departPos="5.10" departSpeed="0.00" departDelay="0.00" arrival="143.00" arrivalLane="W_out_1" arrivalPos="89.60" arrivalSpeed="13.78" duration="83.00" routeLength="194.89" waitingTime="56.00" waitingCount="1" stopTime="0.00" timeLoss="68.96" rerouteNo="1" devices="tripinfo_flow_E_to_W.5 routing_flow_E_to_W.5" vType="car" speedFactor="1.18" vaporized=""/>
    <tripinfo id="flow_E_to_W.6" depart="72.00" departLane="E1_in_0" departPos="5.10" departSpeed="0.00" departDelay="0.00" arrival="145.00" arrivalLane="W_out_1" arrivalPos="89.60" arrivalSpeed="13.24" duration="73.00" routeLength="194.89" waitingTime="47.00" waitingCount="1" stopTime="0.00" timeLoss="58.30" rerouteNo="1" devices="tripinfo_flow_E_to_W.6 routing_flow_E_to_W.6" vType="car" speedFactor="0.97" vaporized=""/>
    <tripinfo id="flow_E_to_N.4" depart="51.00" departLane="E1_in_0" departPos="5.10" departSpeed="0.00" departDelay="3.00" arrival="146.00" arrivalLane="N1_out_0" arrivalPos="67.87" arrivalSpeed="11.71" duration="95.00" routeLength="170.60" waitingTime="68.00" waitingCount="1" stopTime="0.00" timeLoss="79.73" rerouteNo="1" devices="tripinfo_flow_E_to_N.4 routing_flow_E_to_N.4" vType="car" speedFactor="0.87" vaporized=""/>
    <tripinfo id="flow_E_to_W.7" depart="84.00" departLane="E1_in_0" departPos="5.10" departSpeed="0.00" departDelay="0.00" arrival="147.00" arrivalLane="W_out_1" arrivalPos="89.60" arrivalSpeed="13.15" duration="63.00" routeLength="194.89" waitingTime="36.00" waitingCount="1" stopTime="0.00" timeLoss="48.48" rerouteNo="1" devices="tripinfo_flow_E_to_W.7 routing_flow_E_to_W.7" vType="car" speedFactor="1.09" vaporized=""/>
    <tripinfo id="flow_E_to_W.8" depart="96.00" departLane="E1_in_0" departPos="5.10" departSpeed="0.00" departDelay="0.00" arrival="149.00" arrivalLane="W_out_1" arrivalPos="89.60" arrivalSpeed="11.26" duration="53.00" routeLength="194.89" waitingTime="28.00" waitingCount="1" stopTime="0.00" timeLoss="36.85" rerouteNo="1" devices="tripinfo_flow_E_to_W.8 routing_flow_E_to_W.8" vType="car" speedFactor="0.88" vaporized=""/>
    <tripinfo id="flow_E_to_N.5" depart="63.00" departLane="E1_in_0" departPos="5.10" departSpeed="0.00" departDelay="3.00" arrival="151.00" arrivalLane="N1_out_0" arrivalPos="67.87" arrivalSpeed="13.57" duration="88.00" routeLength="170.60" waitingTime="59.00" waitingCount="2" stopTime="0.00" timeLoss="75.42" rerouteNo="1" devices="tripinfo_flow_E_to_N.5 routing_flow_E_to_N.5" vType="car" speedFactor="1.15" vaporized=""/>
    <tripinfo id="flow_E_to_W.9" depart="108.00" departLane="E1_in_0" departPos="5.10" departSpeed="0.00" departDelay="0.00" arrival="151.00" arrivalLane="W_out_1" arrivalPos="89.60" arrivalSpeed="12.70" duration="43.00" routeLength="194.89" waitingTime="17.00" waitingCount="1" stopTime="0.00" timeLoss="28.43" rerouteNo="1" devices="tripinfo_flow_E_to_W.9 routing_flow_E_to_W.9" vType="car" speedFactor="1.00" vaporized=""/>
    <tripinfo id="flow_E_to_N.6" depart="74.00" departLane="E1_in_0" departPos="5.10" departSpeed="0.00" departDelay="2.00" arrival="154.00" arrivalLane="N1_out_0" arrivalPos="67.87" arrivalSpeed="12.78" duration="80.00" routeLength="170.60" waitingTime="49.00" waitingCount="1" stopTime="0.00" timeLoss="67.13" rerouteNo="1" devices="tripinfo_flow_E_to_N.6 routing_flow_E_to_N.6" vType="car" speedFactor="1.18" vaporized=""/>
    <tripinfo id="flow_E_to_N.7" depart="85.00" departLane="E1_in_0" departPos="5.10" departSpeed="0.00" departDelay="1.00" arrival="156.00" arrivalLane="N1_out_0" arrivalPos="67.87" arrivalSpeed="13.08" duration="71.00" routeLength="170.60" waitingTime="41.00" waitingCount="1" stopTime="0.00" timeLoss="57.88" rerouteNo="1" devices="tripinfo_flow_E_to_N.7 routing_flow_E_to_N.7" vType="car" speedFactor="1.04" vaporized=""/>
    <tripinfo id="flow_E_to_W.10" depart="137.00" departLane="E1_in_0" departPos="5.10" departSpeed="0.00" departDelay="17.00" arrival="156.00" arrivalLane="W_out_1" arrivalPos="89.60" arrivalSpeed="12.71" duration="19.00" routeLength="194.89" waitingTime="0.00" waitingCount="0" stopTime="0.00" timeLoss="4.25" rerouteNo="1" devices="tripinfo_flow_E_to_W.10 routing_flow_E_to_W.10" vType="car" speedFactor="1.08" vaporized=""/>
    <tripinfo id="flow_E_to_N.8" depart="97.00" departLane="E1_in_0" departPos="5.10" departSpeed="0.00" departDelay="1.00" arrival="163.00" arrivalLane="N1_out_0" arrivalPos="67.87" arrivalSpeed="11.23" duration="66.00" routeLength="170.60" waitingTime="30.00" waitingCount="1" stopTime="0.00" timeLoss="50.56" rerouteNo="1" devices="tripinfo_flow_E_to_N.8 routing_flow_E_to_N.8" vType="car" speedFactor="0.85" vaporized=""/>
    <tripinfo id="flow_E_to_W.11" depart="143.00" departLane="E1_in_0" departPos="5.10" departSpeed="0.00" departDelay="11.00" arrival="163.00" arrivalLane="W_out_1" arrivalPos="89.60" arrivalSpeed="11.94" duration="20.00" routeLength="194.89" waitingTime="0.00" waitingCount="0" stopTime="0.00" timeLoss="3.71" rerouteNo="1" devices="tripinfo_flow_E_to_W.11 routing_flow_E_to_W.11" vType="car" speedFactor="0.91" vaporized=""/>
    <tripinfo id="flow_E_to_N.9" depart="109.00" departLane="E1_in_0" departPos="5.10" departSpeed="0.00" departDelay="1.00" arrival="167.00" arrivalLane="N1_out_0" arrivalPos="67.87" arrivalSpeed="13.18" duration="58.00" routeLength="170.60" waitingTime="24.00" waitingCount="2" stopTime="0.00" timeLoss="44.73" rerouteNo="1" devices="tripinfo_flow_E_to_N.9 routing_flow_E_to_N.9" vType="car" speedFactor="1.00" vaporized=""/>
    <tripinfo id="flow_E_to_W.12" depart="148.00" departLane="E1_in_0" departPos="5.10" departSpeed="0.00" departDelay="4.00" arrival="168.00" arrivalLane="W_out_1" arrivalPos="89.60" arrivalSpeed="11.83" duration="20.00" routeLength="194.89" waitingTime="0.00" waitingCount="0" stopTime="0.00" timeLoss="4.34" rerouteNo="1" devices="tripinfo_flow_E_to_W.12 routing_flow_E_to_W.12" vType="car" speedFactor="0.94" vaporized=""/>
    <tripinfo id="flow_E_to_N.10" depart="140.00" departLane="E1_in_0" departPos="5.10" departSpeed="0.00" departDelay="20.00" arrival="170.00" arrivalLane="N1_out_0" arrivalPos="67.87" arrivalSpeed="13.52" duration="30.00" routeLength="170.60" waitingTime="1.00" waitingCount="1" stopTime="0.00" timeLoss="17.52" rerouteNo="1" devices="tripinfo_flow_E_to_N.10 routing_flow_E_to_N.10" vType="car" speedFactor="1.12" vaporized=""/>
    <tripinfo id="flow_E_to_N.11" depart="145.00" departLane="E1_in_0" departPos="5.10" departSpeed="0.00" departDelay="13.00" arrival="174.00" arrivalLane="N1_out_0" arrivalPos="67.87" arrivalSpeed="11.75" duration="29.00" routeLength="170.60" waitingTime="0.00" waitingCount="0" stopTime="0.00" timeLoss="14.54" rerouteNo="1" devices="tripinfo_flow_E_to_N.11 routing_flow_E_to_N.11" vType="car" speedFactor="0.91" vaporized=""/>
    <tripinfo id="flow_E_to_W.13" depart="156.00" departLane="E1_in_0" departPos="5.10" departSpeed="0.00" departDelay="0.00" arrival="174.00" arrivalLane="W_out_1" arrivalPos="89.60" arrivalSpeed="13.43" duration="18.00" routeLength="194.89" waitingTime="0.00" waitingCount="0" stopTime="0.00" timeLoss="3.79" rerouteNo="1" devices="tripinfo_flow_E_to_W.13 routing_flow_E_to_W.13" vType="car" speedFactor="1.01" vaporized=""/>
    <tripinfo id="flow_E_to_N.12" depart="151.00" departLane="E1_in_0" departPos="5.10" departSpeed="0.00" departDelay="7.00" arrival="175.00" arrivalLane="N1_out_0" arrivalPos="67.87" arrivalSpeed="13.86" duration="24.00" routeLength="170.60" waitingTime="0.00" waitingCount="0" stopTime="0.00" timeLoss="11.48" rerouteNo="1" devices="tripinfo_flow_E_to_N.12 routing_flow_E_to_N.12" vType="car" speedFactor="1.06" vaporized=""/>
    <tripinfo id="flow_E_to_N.13" depart="159.00" departLane="E1_in_0" departPos="5.10" departSpeed="0.00" departDelay="3.00" arrival="180.00" arrivalLane="N1_out_0" arrivalPos="67.87" arrivalSpeed="13.31" duration="21.00" routeLength="170.60" waitingTime="0.00" waitingCount="0" stopTime="0.00" timeLoss="8.22" rerouteNo="1" devices="tripinfo_flow_E_to_N.13 routing_flow_E_to_N.13" vType="car" speedFactor="1.09" vaporized=""/>
    <tripinfo id="flow_E_to_W.14" depart="168.00" departLane="E1_in_0" departPos="5.10" departSpeed="0.00" departDelay="0.00" arrival="186.00" arrivalLane="W_out_0" arrivalPos="89.60" arrivalSpeed="12.75" duration="18.00" routeLength="194.89" waitingTime="0.00" waitingCount="0" stopTime="0.00" timeLoss="3.48" rerouteNo="1" devices="tripinfo_flow_E_to_W.14 routing_flow_E_to_W.14" vType="car" speedFactor="1.15" vaporized=""/>
    <tripinfo id="flow_E_to_N.14" depart="171.00" departLane="E1_in_0" departPos="5.10" departSpeed="0.00" departDelay="3.00" arrival="190.00" arrivalLane="N1_out_0" arrivalPos="67.87" arrivalSpeed="13.37" duration="19.00" routeLength="170.60" waitingTime="0.00" waitingCount="0" stopTime="0.00" timeLoss="5.90" rerouteNo="1" devices="tripinfo_flow_E_to_N.14 routing_flow_E_to_N.14" vType="car" speedFactor="0.98" vaporized=""/>
    <tripinfo id="flow_E_to_W.15" depart="180.00" departLane="E1_in_0" departPos="5.10" departSpeed="0.00" departDelay="0.00" arrival="198.00" arrivalLane="W_out_0" arrivalPos="89.60" arrivalSpeed="13.20" duration="18.00" routeLength="194.89" waitingTime="0.00" waitingCount="0" stopTime="0.00" timeLoss="3.84" rerouteNo="1" devices="tripinfo_flow_E_to_W.15 routing_flow_E_to_W.15" vType="car" speedFactor="1.02" vaporized=""/>
    <tripinfo id="flow_E_to_N.15" depart="183.00" departLane="E1_in_0" departPos="5.10" departSpeed="0.00" departDelay="3.00" arrival="201.00" arrivalLane="N1_out_0" arrivalPos="67.87" arrivalSpeed="11.65" duration="18.00" routeLength="170.60" waitingTime="0.00" waitingCount="0" stopTime="0.00" timeLoss="3.78" rerouteNo="1" devices="tripinfo_flow_E_to_N.15 routing_flow_E_to_N.15" vType="car" speedFactor="0.89" vaporized=""/>
    <tripinfo id="flow_W_to_E.0" depart="0.00" departLane="W_in_0" departPos="5.10" departSpeed="0.00" departDelay="0.00" arrival="209.00" arrivalLane="E1_out_0" arrivalPos="67.87" arrivalSpeed="13.59" duration="209.00" routeLength="194.89" waitingTime="184.00" waitingCount="1" stopTime="0.00" timeLoss="194.76" rerouteNo="1" devices="tripinfo_flow_W_to_E.0 routing_flow_W_to_E.0" vType="car" speedFactor="1.03" vaporized=""/>
    <tripinfo id="flow_W_to_N.0" depart="3.00" departLane="W_in_0" departPos="5.10" departSpeed="0.00" departDelay="3.00" arrival="210.00" arrivalLane="N1_out_1" arrivalPos="67.87" arrivalSpeed="10.83" duration="207.00" routeLength="193.44" waitingTime="181.00" waitingCount="1" stopTime="0.00" timeLoss="189.22" rerouteNo="1" devices="tripinfo_flow_W_to_N.0 routing_flow_W_to_N.0" vType="car" speedFactor="0.83" vaporized=""/>
    <tripinfo id="flow_W_to_E.1" depart="12.00" departLane="W_in_0" departPos="5.10" departSpeed="0.00" departDelay="0.00" arrival="211.00" arrivalLane="E1_out_0" arrivalPos="67.87" arrivalSpeed="13.72" duration="199.00" routeLength="194.89" waitingTime="175.00" waitingCount="1" stopTime="0.00" timeLoss="184.58" rerouteNo="1" devices="tripinfo_flow_W_to_E.1 routing_flow_W_to_E.1" vType="car" speedFactor="1.09" vaporized=""/>
    <tripinfo id="flow_W_to_N.1" depart="15.00" departLane="W_in_0" departPos="5.10" departSpeed="0.00" departDelay="3.00" arrival="212.00" arrivalLane="N1_out_1" arrivalPos="67.87" arrivalSpeed="13.59" duration="197.00" routeLength="193.44" waitingTime="172.00" waitingCount="1" stopTime="0.00" timeLoss="181.78" rerouteNo="1" devices="tripinfo_flow_W_to_N.1 routing_flow_W_to_N.1" vType="car" speedFactor="1.03" vaporized=""/>
    <tripinfo id="flow_W_to_E.2" depart="24.00" departLane="W_in_0" departPos="5.10" departSpeed="0.00" departDelay="0.00" arrival="214.00" arrivalLane="E1_out_0" arrivalPos="67.87" arrivalSpeed="11.73" duration="190.00" routeLength="194.89" waitingTime="164.00" waitingCount="1" stopTime="0.00" timeLoss="173.24" rerouteNo="1" devices="tripinfo_flow_W_to_E.2 routing_flow_W_to_E.2" vType="car" speedFactor="0.88" vaporized=""/>
    <tripinfo id="flow_W_to_N.2" depart="27.00" departLane="W_in_0" departPos="5.10" departSpeed="0.00" departDelay="3.00" arrival="214.00" arrivalLane="N1_out_1" arrivalPos="67.87" arrivalSpeed="12.41" duration="187.00" routeLength="193.44" waitingTime="161.00" waitingCount="1" stopTime="0.00" timeLoss="170.91" rerouteNo="1" devices="tripinfo_flow_W_to_N.2 routing_flow_W_to_N.2" vType="car" speedFactor="0.94" vaporized=""/>
    <tripinfo id="flow_W_to_E.3" depart="36.00" departLane="W_in_0" departPos="5.10" departSpeed="0.00" departDelay="0.00" arrival="215.00" arrivalLane="E1_out_0" arrivalPos="67.87" arrivalSpeed="13.03" duration="179.00" routeLength="194.89" waitingTime="154.00" waitingCount="1" stopTime="0.00" timeLoss="164.51" rerouteNo="1" devices="tripinfo_flow_W_to_E.3 routing_flow_W_to_E.3" vType="car" speedFactor="0.97" vaporized=""/>
    <tripinfo id="flow_W_to_N.3" depart="39.00" departLane="W_in_0" departPos="5.10" departSpeed="0.00" departDelay="3.00" arrival="216.00" arrivalLane="N1_out_1" arrivalPos="67.87" arrivalSpeed="12.17" duration="177.00" routeLength="193.44" waitingTime="150.00" waitingCount="1" stopTime="0.00" timeLoss="160.65" rerouteNo="1" devices="tripinfo_flow_W_to_N.3 routing_flow_W_to_N.3" vType="car" speedFactor="0.89" vaporized=""/>
    <tripinfo id="flow_W_to_E.4" depart="48.00" departLane="W_in_0" departPos="5.10" departSpeed="0.00" departDelay="0.00" arrival="217.00" arrivalLane="E1_out_0" arrivalPos="67.87" arrivalSpeed="13.81" duration="169.00" routeLength="194.89" waitingTime="144.00" waitingCount="1" stopTime="0.00" timeLoss="154.54" rerouteNo="1" devices="tripinfo_flow_W_to_E.4 routing_flow_W_to_E.4" vType="car" speedFactor="1.13" vaporized=""/>
    <tripinfo id="flow_W_to_N.4" depart="51.00" departLane="W_in_0" departPos="5.10" departSpeed="0.00" departDelay="3.00" arrival="218.00" arrivalLane="N1_out_1" arrivalPos="67.87" arrivalSpeed="11.92" duration="167.00" routeLength="193.44" waitingTime="140.00" waitingCount="1" stopTime="0.00" timeLoss="150.99" rerouteNo="1" devices="tripinfo_flow_W_to_N.4 routing_flow_W_to_N.4" vType="car" speedFactor="0.93" vaporized=""/>
    <tripinfo id="flow_W_to_E.5" depart="60.00" departLane="W_in_0" departPos="5.10" departSpeed="0.00" departDelay="0.00" arrival="219.00" arrivalLane="E1_out_0" arrivalPos="67.87" arrivalSpeed="13.05" duration="159.00" routeLength="194.89" waitingTime="132.00" waitingCount="1" stopTime="0.00" timeLoss="144.23" rerouteNo="1" devices="tripinfo_flow_W_to_E.5 routing_flow_W_to_E.5" vType="car" speedFactor="0.99" vaporized=""/>
    <tripinfo id="flow_W_to_N.5" depart="63.00" departLane="W_in_0" departPos="5.10" departSpeed="0.00" departDelay="3.00" arrival="220.00" arrivalLane="N1_out_1" arrivalPos="67.87" arrivalSpeed="13.63" duration="157.00" routeLength="193.44" waitingTime="130.00" waitingCount="1" stopTime="0.00" timeLoss="141.83" rerouteNo="1" devices="tripinfo_flow_W_to_N.5 routing_flow_W_to_N.5" vType="car" speedFactor="1.02" vaporized=""/>
    <tripinfo id="flow_W_to_E.6" depart="72.00" departLane="W_in_0" departPos="5.10" departSpeed="0.00" departDelay="0.00" arrival="221.00" arrivalLane="E1_out_0" arrivalPos="67.87" arrivalSpeed="13.47" duration="149.00" routeLength="194.89" waitingTime="122.00" waitingCount="1" stopTime="0.00" timeLoss="134.14" rerouteNo="1" devices="tripinfo_flow_W_to_E.6 routing_flow_W_to_E.6" vType="car" speedFactor="1.03" vaporized=""/>
    <tripinfo id="flow_W_to_N.6" depart="75.00" departLane="W_in_0" departPos="5.10" departSpeed="0.00" departDelay="3.00" arrival="222.00" arrivalLane="N1_out_1" arrivalPos="67.87" arrivalSpeed="12.45" duration="147.00" routeLength="193.44" waitingTime="120.00" waitingCount="1" stopTime="0.00" timeLoss="131.35" rerouteNo="1" devices="tripinfo_flow_W_to_N.6 routing_flow_W_to_N.6" vType="car" speedFactor="0.96" vaporized=""/>
    <tripinfo id="flow_W_to_E.7" depart="84.00" departLane="W_in_0" departPos="5.10" departSpeed="0.00" departDelay="0.00" arrival="222.00" arrivalLane="E1_out_0" arrivalPos="67.87" arrivalSpeed="13.09" duration="138.00" routeLength="194.89" waitingTime="111.00" waitingCount="1" stopTime="0.00" timeLoss="123.83" rerouteNo="1" devices="tripinfo_flow_W_to_E.7 routing_flow_W_to_E.7" vType="car" speedFactor="1.00" vaporized=""/>
    <tripinfo id="flow_W_to_E.8" depart="96.00" departLane="W_in_0" departPos="5.10" departSpeed="0.00" departDelay="0.00" arrival="224.00" arrivalLane="E1_out_0" arrivalPos="67.87" arrivalSpeed="13.82" duration="128.00" routeLength="194.89" waitingTime="103.00" waitingCount="1" stopTime="0.00" timeLoss="113.72" rerouteNo="1" devices="tripinfo_flow_W_to_E.8 routing_flow_W_to_E.8" vType="car" speedFactor="1.02" vaporized=""/>