<?xml version="1.0" encoding="UTF-8"?>

<!-- generated on 2025-09-07 20:52:51 by Eclipse SUMO sumo Version 1.18.0
<configuration xmlns:xsi="http://www.w3.org/2001/XMLSchema-instance" xsi:noNamespaceSchemaLocation="http://sumo.dlr.de/xsd/sumoConfiguration.xsd">

    <input>
        <net-file value="data/net.xml"/>
        <route-files value="data/routes.xml"/>
        <additional-files value="tl_logic.xml"/>
    </input>

    <output>
        <tripinfo-output value="tripinfo.xml"/>
    </output>

    <report>
        <verbose value="true"/>
    </report>

</configuration>
-->

<tripinfos xmlns:xsi="http://www.w3.org/2001/XMLSchema-instance" xsi:noNamespaceSchemaLocation="http://sumo.dlr.de/xsd/tripinfo_file.xsd">
    <tripinfo id="flow_N_to_E.0" depart="3.00" departLane="N1_in_0" departPos="5.10" departSpeed="0.00" departDelay="3.00" arrival="16.00" arrivalLane="E_out_1" arrivalPos="4.67" arrivalSpeed="11.96" duration="13.00" routeLength="108.51" waitingTime="0.00" waitingCount="0" stopTime="0.00" timeLoss="3.92" rerouteNo="1" devices="tripinfo_flow_N_to_E.0 routing_flow_N_to_E.0" vType="car" speedFactor="1.08" vaporized=""/>
    <tripinfo id="flow_N_to_W.0" depart="0.00" departLane="N1_in_0" departPos="5.10" departSpeed="0.00" departDelay="0.00" arrival="20.00" arrivalLane="W_out_0" arrivalPos="89.60" arrivalSpeed="13.39" duration="20.00" routeLength="183.12" waitingTime="0.00" waitingCount="0" stopTime="0.00" timeLoss="5.77" rerouteNo="1" devices="tripinfo_flow_N_to_W.0 routing_flow_N_to_W.0" vType="car" speedFactor="1.01" vaporized=""/>
    <tripinfo id="flow_E_to_N.0" depart="3.00" departLane="E1_in_0" departPos="5.10" departSpeed="0.00" departDelay="3.00" arrival="22.00" arrivalLane="N1_out_0" arrivalPos="67.87" arrivalSpeed="12.66" duration="19.00" routeLength="170.60" waitingTime="0.00" waitingCount="0" stopTime="0.00" timeLoss="5.38" rerouteNo="1" devices="tripinfo_flow_E_to_N.0 routing_flow_E_to_N.0" vType="car" speedFactor="0.94" vaporized=""/>
    <tripinfo id="flow_E_to_W.1" depart="12.00" departLane="E1_in_0" departPos="5.10" departSpeed="0.00" departDelay="0.00" arrival="30.00" arrivalLane="W_out_0" arrivalPos="89.60" arrivalSpeed="13.47" duration="18.00" routeLength="194.89" waitingTime="0.00" waitingCount="0" stopTime="0.00" timeLoss="3.63" rerouteNo="1" devices="tripinfo_flow_E_to_W.1 routing_flow_E_to_W.1" vType="car" speedFactor="1.05" vaporized=""/>
    <tripinfo id="flow_E_to_W.0" depart="0.00" departLane="E1_in_0" departPos="5.10" departSpeed="0.00" departDelay="0.00" arrival="31.00" arrivalLane="W_out_1" arrivalPos="89.60" arrivalSpeed="13.78" duration="31.00" routeLength="194.89" waitingTime="8.00" waitingCount="1" stopTime="0.00" timeLoss="16.92" rerouteNo="1" devices="tripinfo_flow_E_to_W.0 routing_flow_E_to_W.0" vType="car" speedFactor="1.06" vaporized=""/>
    <tripinfo id="flow_E_to_N.1" depart="15.00" departLane="E1_in_0" departPos="5.10" departSpeed="0.00" departDelay="3.00" arrival="34.00" arrivalLane="N1_out_0" arrivalPos="67.87" arrivalSpeed="11.98" duration="19.00" routeLength="170.60" waitingTime="0.00" waitingCount="0" stopTime="0.00" timeLoss="4.83" rerouteNo="1" devices="tripinfo_flow_E_to_N.1 routing_flow_E_to_N.1" vType="car" speedFactor="0.89" vaporized=""/>
    <tripinfo id="flow_E_to_W.2" depart="24.00" departLane="E1_in_0" departPos="5.10" departSpeed="0.00" departDelay="0.00" arrival="42.00" arrivalLane="W_out_0" arrivalPos="89.60" arrivalSpeed="13.72" duration="18.00" routeLength="194.89" waitingTime="0.00" waitingCount="0" stopTime="0.00" timeLoss="3.77" rerouteNo="1" devices="tripinfo_flow_E_to_W.2 routing_flow_E_to_W.2" vType="car" speedFactor="1.05" vaporized=""/>
    <tripinfo id="flow_E_to_N.2" depart="27.00" departLane="E1_in_0" departPos="5.10" departSpeed="0.00" departDelay="3.00" arrival="45.00" arrivalLane="N1_out_0" arrivalPos="67.87" arrivalSpeed="13.19" duration="18.00" routeLength="170.60" waitingTime="0.00" waitingCount="0" stopTime="0.00" timeLoss="4.87" rerouteNo="1" devices="tripinfo_flow_E_to_N.2 routing_flow_E_to_N.2" vType="car" speedFactor="1.12" vaporized=""/>
    <tripinfo id="flow_W_to_E.0" depart="0.00" departLane="W_in_0" departPos="5.10" departSpeed="0.00" departDelay="0.00" arrival="50.00" arrivalLane="E1_out_0" arrivalPos="67.87" arrivalSpeed="13.59" duration="50.00" routeLength="194.89" waitingTime="25.00" waitingCount="1" stopTime="0.00" timeLoss="35.55" rerouteNo="1" devices="tripinfo_flow_W_to_E.0 routing_flow_W_to_E.0" vType="car" speedFactor="1.03" vaporized=""/>
    <tripinfo id="flow_W_to_N.0" depart="3.00" departLane="W_in_0" departPos="5.10" departSpeed="0.00" departDelay="3.00" arrival="51.00" arrivalLane="N1_out_1" arrivalPos="67.87" arrivalSpeed="11.00" duration="48.00" routeLength="193.44" waitingTime="22.00" waitingCount="1" stopTime="0.00" timeLoss="30.44" rerouteNo="1" devices="tripinfo_flow_W_to_N.0 routing_flow_W_to_N.0" vType="car" speedFactor="0.83" vaporized=""/>
    <tripinfo id="flow_W_to_E.1" depart="12.00" departLane="W_in_0" departPos="5.10" departSpeed="0.00" departDelay="0.00" arrival="52.00" arrivalLane="E1_out_0" arrivalPos="67.87" arrivalSpeed="12.72" duration="40.00" routeLength="194.89" waitingTime="16.00" waitingCount="1" stopTime="0.00" timeLoss="25.43" rerouteNo="1" devices="tripinfo_flow_W_to_E.1 routing_flow_W_to_E.1" vType="car" speedFactor="1.09" vaporized=""/>
    <tripinfo id="flow_W_to_N.1" depart="15.00" departLane="W_in_0" departPos="5.10" departSpeed="0.00" departDelay="3.00" arrival="53.00" arrivalLane="N1_out_1" arrivalPos="67.87" arrivalSpeed="13.29" duration="38.00" routeLength="193.44" waitingTime="13.00" waitingCount="1" stopTime="0.00" timeLoss="23.15" rerouteNo="1" devices="tripinfo_flow_W_to_N.1 routing_flow_W_to_N.1" vType="car" speedFactor="1.03" vaporized=""/>
    <tripinfo id="flow_W_to_E.2" depart="24.00" departLane="W_in_0" departPos="5.10" departSpeed="0.00" departDelay="0.00" arrival="54.00" arrivalLane="E1_out_0" arrivalPos="67.87" arrivalSpeed="11.70" duration="30.00" routeLength="194.89" waitingTime="5.00" waitingCount="1" stopTime="0.00" timeLoss="13.98" rerouteNo="1" devices="tripinfo_flow_W_to_E.2 routing_flow_W_to_E.2" vType="car" speedFactor="0.88" vaporized=""/>
    <tripinfo id="flow_W_to_N.2" depart="27.00" departLane="W_in_0" departPos="5.10" departSpeed="0.00" departDelay="3.00" arrival="55.00" arrivalLane="N1_out_1" arrivalPos="67.87" arrivalSpeed="12.32" duration="28.00" routeLength="193.44" waitingTime="2.00" waitingCount="1" stopTime="0.00" timeLoss="12.16" rerouteNo="1" devices="tripinfo_flow_W_to_N.2 routing_flow_W_to_N.2" vType="car" speedFactor="0.94" vaporized=""/>
    <tripinfo id="flow_W_to_E.3" depart="36.00" departLane="W_in_0" departPos="5.10" departSpeed="0.00" departDelay="0.00" arrival="56.00" arrivalLane="E1_out_0" arrivalPos="67.87" arrivalSpeed="13.04" duration="20.00" routeLength="194.89" waitingTime="0.00" waitingCount="0" stopTime="0.00" timeLoss="5.18" rerouteNo="1" devices="tripinfo_flow_W_to_E.3 routing_flow_W_to_E.3" vType="car" speedFactor="0.97" vaporized=""/>
    <tripinfo id="flow_W_to_N.3" depart="39.00" departLane="W_in_0" departPos="5.10" departSpeed="0.00" departDelay="3.00" arrival="60.00" arrivalLane="N1_out_1" arrivalPos="67.87" arrivalSpeed="11.17" duration="21.00" routeLength="193.44" waitingTime="0.00" waitingCount="0" stopTime="0.00" timeLoss="4.45" rerouteNo="1" devices="tripinfo_flow_W_to_N.3 routing_flow_W_to_N.3" vType="car" speedFactor="0.89" vaporized=""/>
    <tripinfo id="flow_E_to_N.3" depart="39.00" departLane="E1_in_0" departPos="5.10" departSpeed="0.00" departDelay="3.00" arrival="63.00" arrivalLane="N1_out_0" arrivalPos="67.87" arrivalSpeed="12.74" duration="24.00" routeLength="170.60" waitingTime="2.00" waitingCount="1" stopTime="0.00" timeLoss="11.12" rerouteNo="1" devices="tripinfo_flow_E_to_N.3 routing_flow_E_to_N.3" vType="car" speedFactor="1.16" vaporized=""/>
    <tripinfo id="flow_W_to_E.4" depart="48.00" departLane="W_in_0" departPos="5.10" departSpeed="0.00" departDelay="0.00" arrival="66.00" arrivalLane="E1_out_0" arrivalPos="67.87" arrivalSpeed="13.64" duration="18.00" routeLength="194.89" waitingTime="0.00" waitingCount="0" stopTime="0.00" timeLoss="3.88" rerouteNo="1" devices="tripinfo_flow_W_to_E.4 routing_flow_W_to_E.4" vType="car" speedFactor="1.13" vaporized=""/>
    <tripinfo id="flow_W_to_N.4" depart="51.00" departLane="W_in_0" departPos="5.10" departSpeed="0.00" departDelay="3.00" arrival="72.00" arrivalLane="N1_out_1" arrivalPos="67.87" arrivalSpeed="12.61" duration="21.00" routeLength="193.44" waitingTime="0.00" waitingCount="0" stopTime="0.00" timeLoss="4.67" rerouteNo="1" devices="tripinfo_flow_W_to_N.4 routing_flow_W_to_N.4" vType="car" speedFactor="0.93" vaporized=""/>
    <tripinfo id="flow_N_to_E.1" depart="15.00" departLane="N1_in_0" departPos="5.10" departSpeed="0.00" departDelay="3.00" arrival="73.00" arrivalLane="E_out_1" arrivalPos="4.67" arrivalSpeed="7.85" duration="58.00" routeLength="108.51" waitingTime="41.00" waitingCount="1" stopTime="0.00" timeLoss="48.01" rerouteNo="1" devices="tripinfo_flow_N_to_E.1 routing_flow_N_to_E.1" vType="car" speedFactor="0.86" vaporized=""/>
    <tripinfo id="flow_E_to_N.4" depart="51.00" departLane="E1_in_0" departPos="5.10" departSpeed="0.00" departDelay="3.00" arrival="75.00" arrivalLane="N1_out_0" arrivalPos="67.87" arrivalSpeed="11.89" duration="24.00" routeLength="170.60" waitingTime="2.00" waitingCount="1" stopTime="0.00" timeLoss="9.18" rerouteNo="1" devices="tripinfo_flow_E_to_N.4 routing_flow_E_to_N.4" vType="car" speedFactor="0.87" vaporized=""/>
    <tripinfo id="flow_N_to_E.2" depart="27.00" departLane="N1_in_0" departPos="5.10" departSpeed="0.00" departDelay="3.00" arrival="77.00" arrivalLane="E_out_1" arrivalPos="4.67" arrivalSpeed="10.80" duration="50.00" routeLength="108.51" waitingTime="32.00" waitingCount="1" stopTime="0.00" timeLoss="40.37" rerouteNo="1" devices="tripinfo_flow_N_to_E.2 routing_flow_N_to_E.2" vType="car" speedFactor="0.93" vaporized=""/>
    <tripinfo id="flow_N_to_W.1" depart="12.00" departLane="N1_in_0" departPos="5.10" departSpeed="0.00" departDelay="0.00" arrival="79.00" arrivalLane="W_out_0" arrivalPos="89.60" arrivalSpeed="11.84" duration="67.00" routeLength="183.12" waitingTime="45.00" waitingCount="1" stopTime="0.00" timeLoss="52.27" rerouteNo="1" devices="tripinfo_flow_N_to_W.1 routing_flow_N_to_W.1" vType="car" speedFactor="0.94" vaporized=""/>
    <tripinfo id="flow_N_to_E.3" depart="39.00" departLane="N1_in_0" departPos="5.10" departSpeed="0.00" departDelay="3.00" arrival="79.00" arrivalLane="E_out_1" arrivalPos="4.67" arrivalSpeed="11.29" duration="40.00" routeLength="108.51" waitingTime="20.00" waitingCount="1" stopTime="0.00" timeLoss="30.98" rerouteNo="1" devices="tripinfo_flow_N_to_E.3 routing_flow_N_to_E.3" vType="car" speedFactor="1.01" vaporized=""/>
    <tripinfo id="flow_N_to_E.4" depart="51.00" departLane="N1_in_0" departPos="5.10" departSpeed="0.00" departDelay="3.00" arrival="81.00" arrivalLane="E_out_1" arrivalPos="4.67" arrivalSpeed="9.87" duration="30.00" routeLength="108.51" waitingTime="9.00" waitingCount="1" stopTime="0.00" timeLoss="20.74" rerouteNo="1" devices="tripinfo_flow_N_to_E.4 routing_flow_N_to_E.4" vType="car" speedFactor="0.95" vaporized=""/>
    <tripinfo id="flow_N_to_W.2" depart="24.00" departLane="N1_in_0" departPos="5.10" departSpeed="0.00" departDelay="0.00" arrival="83.00" arrivalLane="W_out_0" arrivalPos="89.60" arrivalSpeed="13.03" duration="59.00" routeLength="183.12" waitingTime="34.00" waitingCount="1" stopTime="0.00" timeLoss="44.79" rerouteNo="1" devices="tripinfo_flow_N_to_W.2 routing_flow_N_to_W.2" vType="car" speedFactor="0.99" vaporized=""/>
    <tripinfo id="flow_N_to_E.5" depart="63.00" departLane="N1_in_0" departPos="5.10" departSpeed="0.00" departDelay="3.00" arrival="83.00" arrivalLane="E_out_1" arrivalPos="4.67" arrivalSpeed="11.80" duration="20.00" routeLength="108.51" waitingTime="1.00" waitingCount="1" stopTime="0.00" timeLoss="11.21" rerouteNo="1" devices="tripinfo_flow_N_to_E.5 routing_flow_N_to_E.5" vType="car" speedFactor="1.17" vaporized=""/>
    <tripinfo id="flow_N_to_W.3" depart="36.00" departLane="N1_in_0" departPos="5.10" departSpeed="0.00" departDelay="0.00" arrival="86.00" arrivalLane="W_out_0" arrivalPos="89.60" arrivalSpeed="13.69" duration="50.00" routeLength="183.12" waitingTime="24.00" waitingCount="1" stopTime="0.00" timeLoss="35.95" rerouteNo="1" devices="tripinfo_flow_N_to_W.3 routing_flow_N_to_W.3" vType="car" speedFactor="1.02" vaporized=""/>
    <tripinfo id="flow_N_to_W.4" depart="48.00" departLane="N1_in_0" departPos="5.10" departSpeed="0.00" departDelay="0.00" arrival="89.00" arrivalLane="W_out_0" arrivalPos="89.60" arrivalSpeed="12.54" duration="41.00" routeLength="183.12" waitingTime="15.00" waitingCount="1" stopTime="0.00" timeLoss="25.50" rerouteNo="1" devices="tripinfo_flow_N_to_W.4 routing_flow_N_to_W.4" vType="car" speedFactor="0.92" vaporized=""/>
    <tripinfo id="flow_N_to_E.6" depart="75.00" departLane="N1_in_0" departPos="5.10" departSpeed="0.00" departDelay="3.00" arrival="89.00" arrivalLane="E_out_1" arrivalPos="4.67" arrivalSpeed="9.06" duration="14.00" routeLength="108.51" waitingTime="0.00" waitingCount="0" stopTime="0.00" timeLoss="4.03" rerouteNo="1" devices="tripinfo_flow_N_to_E.6 routing_flow_N_to_E.6" vType="car" speedFactor="0.90" vaporized=""/>
    <tripinfo id="flow_N_to_W.5" depart="60.00" departLane="N1_in_0" departPos="5.10" departSpeed="0.00" departDelay="0.00" arrival="92.00" arrivalLane="W_out_0" arrivalPos="89.60" arrivalSpeed="13.42" duration="32.00" routeLength="183.12" waitingTime="4.00" waitingCount="1" stopTime="0.00" timeLoss="17.08" rerouteNo="1" devices="tripinfo_flow_N_to_W.5 routing_flow_N_to_W.5" vType="car" speedFactor="1.01" vaporized=""/>
    <tripinfo id="flow_E_to_W.3" depart="36.00" departLane="E1_in_0" departPos="5.10" departSpeed="0.00" departDelay="0.00" arrival="101.00" arrivalLane="W_out_0" arrivalPos="89.60" arrivalSpeed="11.92" duration="65.00" routeLength="194.89" waitingTime="39.00" waitingCount="1" stopTime="0.00" timeLoss="49.41" rerouteNo="1" devices="tripinfo_flow_E_to_W.3 routing_flow_E_to_W.3" vType="car" speedFactor="0.94" vaporized=""/>
    <tripinfo id="flow_E_to_W.4" depart="48.00" departLane="E1_in_0" departPos="5.10" departSpeed="0.00" departDelay="0.00" arrival="101.00" arrivalLane="W_out_1" arrivalPos="89.60" arrivalSpeed="10.98" duration="53.00" routeLength="194.89" waitingTime="26.00" waitingCount="1" stopTime="0.00" timeLoss="35.42" rerouteNo="1" devices="tripinfo_flow_E_to_W.4 routing_flow_E_to_W.4" vType="car" speedFactor="0.83" vaporized=""/>
    <tripinfo id="flow_E_to_W.5" depart="60.00" departLane="E1_in_0" departPos="5.10" departSpeed="0.00" departDelay="0.00" arrival="103.00" arrivalLane="W_out_0" arrivalPos="89.60" arrivalSpeed="13.05" duration="43.00" routeLength="194.89" waitingTime="18.00" waitingCount="1" stopTime="0.00" timeLoss="28.07" rerouteNo="1" devices="tripinfo_flow_E_to_W.5 routing_flow_E_to_W.5" vType="car" speedFactor="1.18" vaporized=""/>
    <tripinfo id="flow_E_to_N.5" depart="63.00" departLane="E1_in_0" departPos="5.10" departSpeed="0.00" departDelay="3.00" arrival="103.00" arrivalLane="N1_out_0" arrivalPos="67.87" arrivalSpeed="12.73" duration="40.00" routeLength="170.60" waitingTime="16.00" waitingCount="1" stopTime="0.00" timeLoss="26.92" rerouteNo="1" devices="tripinfo_flow_E_to_N.5 routing_flow_E_to_N.5" vType="car" speedFactor="1.15" vaporized=""/>
    <tripinfo id="flow_E_to_W.6" depart="72.00" departLane="E1_in_0" departPos="5.10" departSpeed="0.00" departDelay="0.00" arrival="103.00" arrivalLane="W_out_1" arrivalPos="89.60" arrivalSpeed="12.28" duration="31.00" routeLength="194.89" waitingTime="8.00" waitingCount="1" stopTime="0.00" timeLoss="16.08" rerouteNo="1" devices="tripinfo_flow_E_to_W.6 routing_flow_E_to_W.6" vType="car" speedFactor="0.97" vaporized=""/>
    <tripinfo id="flow_E_to_W.7" depart="84.00" departLane="E1_in_0" departPos="5.10" departSpeed="0.00" departDelay="0.00" arrival="105.00" arrivalLane="W_out_1" arrivalPos="89.60" arrivalSpeed="13.34" duration="21.00" routeLength="194.89" waitingTime="0.00" waitingCount="0" stopTime="0.00" timeLoss="6.19" rerouteNo="1" devices="tripinfo_flow_E_to_W.7 routing_flow_E_to_W.7" vType="car" speedFactor="1.09" vaporized=""/>
    <tripinfo id="flow_E_to_N.6" depart="75.00" departLane="E1_in_0" departPos="5.10" departSpeed="0.00" departDelay="3.00" arrival="106.00" arrivalLane="N1_out_0" arrivalPos="67.87" arrivalSpeed="12.79" duration="31.00" routeLength="170.60" waitingTime="6.00" waitingCount="1" stopTime="0.00" timeLoss="18.07" rerouteNo="1" devices="tripinfo_flow_E_to_N.6 routing_flow_E_to_N.6" vType="car" speedFactor="1.18" vaporized=""/>
    <tripinfo id="flow_E_to_N.7" depart="87.00" departLane="E1_in_0" departPos="5.10" departSpeed="0.00" departDelay="3.00" arrival="108.00" arrivalLane="N1_out_0" arrivalPos="67.87" arrivalSpeed="12.92" duration="21.00" routeLength="170.60" waitingTime="0.00" waitingCount="0" stopTime="0.00" timeLoss="7.97" rerouteNo="1" devices="tripinfo_flow_E_to_N.7 routing_flow_E_to_N.7" vType="car" speedFactor="1.04" vaporized=""/>
    <tripinfo id="flow_W_to_E.5" depart="60.00" departLane="W_in_0" departPos="5.10" departSpeed="0.00" departDelay="0.00" arrival="119.00" arrivalLane="E1_out_0" arrivalPos="67.87" arrivalSpeed="12.75" duration="59.00" routeLength="194.89" waitingTime="36.00" waitingCount="1" stopTime="0.00" timeLoss="44.49" rerouteNo="1" devices="tripinfo_flow_W_to_E.5 routing_flow_W_to_E.5" vType="car" speedFactor="0.99" vaporized=""/>
    <tripinfo id="flow_W_to_N.5" depart="63.00" departLane="W_in_0" departPos="5.10" departSpeed="0.00" departDelay="3.00" arrival="119.00" arrivalLane="N1_out_1" arrivalPos="67.87" arrivalSpeed="12.80" duration="56.00" routeLength="193.44" waitingTime="32.00" waitingCount="1" stopTime="0.00" timeLoss="40.83" rerouteNo="1" devices="tripinfo_flow_W_to_N.5 routing_flow_W_to_N.5" vType="car" speedFactor="1.02" vaporized=""/>
    <tripinfo id="flow_W_to_E.6" depart="72.00" departLane="W_in_0" departPos="5.10" departSpeed="0.00" departDelay="0.00" arrival="121.00" arrivalLane="E1_out_0" arrivalPos="67.87" arrivalSpeed="13.75" duration="49.00" routeLength="194.89" waitingTime="24.00" waitingCount="1" stopTime="0.00" timeLoss="34.69" rerouteNo="1" devices="tripinfo_flow_W_to_E.6 routing_flow_W_to_E.6" vType="car" speedFactor="1.03" vaporized=""/>
    <tripinfo id="flow_W_to_N.6" depart="75.00" departLane="W_in_0" departPos="5.10" departSpeed="0.00" departDelay="3.00" arrival="121.00" arrivalLane="N1_out_1" arrivalPos="67.87" arrivalSpeed="12.40" duration="46.00" routeLength="193.44" waitingTime="21.00" waitingCount="1" stopTime="0.00" timeLoss="30.66" rerouteNo="1" devices="tripinfo_flow_W_to_N.6 routing_flow_W_to_N.6" vType="car" speedFactor="0.96" vaporized=""/>
    <tripinfo id="flow_W_to_E.7" depart="84.00" departLane="W_in_0" departPos="5.10" departSpeed="0.00" departDelay="0.00" arrival="123.00" arrivalLane="E1_out_0" arrivalPos="67.87" arrivalSpeed="12.90" duration="39.00" routeLength="194.89" waitingTime="14.00" waitingCount="1" stopTime="0.00" timeLoss="24.66" rerouteNo="1" devices="tripinfo_flow_W_to_E.7 routing_flow_W_to_E.7" vType="car" speedFactor="1.00" vaporized=""/>
    <tripinfo id="flow_W_to_N.7" depart="87.00" departLane="W_in_0" departPos="5.10" departSpeed="0.00" departDelay="3.00" arrival="124.00" arrivalLane="N1_out_1" arrivalPos="67.87" arrivalSpeed="11.27" duration="37.00" routeLength="193.44" waitingTime="12.00" waitingCount="1" stopTime="0.00" timeLoss="20.43" rerouteNo="1" devices="tripinfo_flow_W_to_N.7 routing_flow_W_to_N.7" vType="car" speedFactor="0.90" vaporized=""/>
    <tripinfo id="flow_W_to_E.8" depart="96.00" departLane="W_in_0" departPos="5.10" departSpeed="0.00" departDelay="0.00" arrival="125.00" arrivalLane="E1_out_0" arrivalPos="67.87" arrivalSpeed="13.17" duration="29.00" routeLength="194.89" waitingTime="4.00" waitingCount="1" stopTime="0.00" timeLoss="14.72" rerouteNo="1" devices="tripinfo_flow_W_to_E.8 routing_flow_W_to_E.8" vType="car" speedFactor="1.02" vaporized=""/>
    <tripinfo id="flow_W_to_N.8" depart="99.00" departLane="W_in_0" departPos="5.10" departSpeed="0.00" departDelay="3.00" arrival="126.00" arrivalLane="N1_out_1" arrivalPos="67.87" arrivalSpeed="13.01" duration="27.00" routeLength="193.44" waitingTime="1.00" waitingCount="1" stopTime="0.00" timeLoss="11.78" rerouteNo="1" devices="tripinfo_flow_W_to_N.8 routing_flow_W_to_N.8" vType="car" speedFactor="1.10" vaporized=""/>
    <tripinfo id="flow_W_to_E.9" depart="108.00" departLane="W_in_0" departPos="5.10" departSpeed="0.00" departDelay="0.00" arrival="127.00" arrivalLane="E1_out_0" arrivalPos="67.87" arrivalSpeed="13.65" duration="19.00" routeLength="194.89" waitingTime="0.00" waitingCount="0" stopTime="0.00" timeLoss="4.48" rerouteNo="1" devices="tripinfo_flow_W_to_E.9 routing_flow_W_to_E.9" vType="car" speedFactor="1.02" vaporized=""/>
    <tripinfo id="flow_W_to_N.9" depart="111.00" departLane="W_in_0" departPos="5.10" departSpeed="0.00" departDelay="3.00" arrival="130.00" arrivalLane="N1_out_1" arrivalPos="67.87" arrivalSpeed="12.54" duration="19.00" routeLength="193.44" waitingTime="0.00" waitingCount="0" stopTime="0.00" timeLoss="3.91" rerouteNo="1" devices="tripinfo_flow_W_to_N.9 routing_flow_W_to_N.9" vType="car" speedFactor="0.97" vaporized=""/>
    <tripinfo id="flow_E_to_N.8" depart="99.00" departLane="E1_in_0" departPos="5.10" departSpeed="0.00" departDelay="3.00" arrival="134.00" arrivalLane="N1_out_0" arrivalPos="67.87" arrivalSpeed="10.67" duration="35.00" routeLength="170.60" waitingTime="12.00" waitingCount="1" stopTime="0.00" timeLoss="20.25" rerouteNo="1" devices="tripinfo_flow_E_to_N.8 routing_flow_E_to_N.8" vType="car" speedFactor="0.85" vaporized=""/>
    <tripinfo id="flow_E_to_N.9" depart="111.00" departLane="E1_in_0" departPos="5.10" departSpeed="0.00" departDelay="3.00" arrival="138.00" arrivalLane="N1_out_0" arrivalPos="67.87" arrivalSpeed="13.51" duration="27.00" routeLength="170.60" waitingTime="3.00" waitingCount="1" stopTime="0.00" timeLoss="13.98" rerouteNo="1" devices="tripinfo_flow_E_to_N.9 routing_flow_E_to_N.9" vType="car" speedFactor="1.00" vaporized=""/>
    <tripinfo id="flow_W_to_E.10" depart="120.00" departLane="W_in_0" departPos="5.10" departSpeed="0.00" departDelay="0.00" arrival="139.00" arrivalLane="E1_out_0" arrivalPos="67.87" arrivalSpeed="12.15" duration="19.00" routeLength="194.89" waitingTime="0.00" waitingCount="0" stopTime="0.00" timeLoss="3.41" rerouteNo="1" devices="tripinfo_flow_W_to_E.10 routing_flow_W_to_E.10" vType="car" speedFactor="0.94" vaporized=""/>
    <tripinfo id="flow_N_to_E.7" depart="87.00" departLane="N1_in_0" departPos="5.10" departSpeed="0.00" departDelay="3.00" arrival="144.00" arrivalLane="E_out_1" arrivalPos="4.67" arrivalSpeed="8.84" duration="57.00" routeLength="108.51" waitingTime="40.00" waitingCount="1" stopTime="0.00" timeLoss="48.32" rerouteNo="1" devices="tripinfo_flow_N_to_E.7 routing_flow_N_to_E.7" vType="car" speedFactor="1.09" vaporized=""/>
    <tripinfo id="flow_W_to_N.10" depart="123.00" departLane="W_in_0" departPos="5.10" departSpeed="0.00" departDelay="3.00" arrival="144.00" arrivalLane="N1_out_1" arrivalPos="67.87" arrivalSpeed="12.01" duration="21.00" routeLength="193.44" waitingTime="0.00" waitingCount="0" stopTime="0.00" timeLoss="4.17" rerouteNo="1" devices="tripinfo_flow_W_to_N.10 routing_flow_W_to_N.10" vType="car" speedFactor="0.88" vaporized=""/>
    <tripinfo id="flow_N_to_E.8" depart="99.00" departLane="N1_in_0" departPos="5.10" departSpeed="0.00" departDelay="3.00" arrival="146.00" arrivalLane="E_out_1" arrivalPos="4.67" arrivalSpeed="9.94" duration="47.00" routeLength="108.51" waitingTime="28.00" waitingCount="1" stopTime="0.00" timeLoss="38.44" rerouteNo="1" devices="tripinfo_flow_N_to_E.8 routing_flow_N_to_E.8" vType="car" speedFactor="1.17" vaporized=""/>
    <tripinfo id="flow_N_to_W.6" depart="72.00" departLane="N1_in_0" departPos="5.10" departSpeed="0.00" departDelay="0.00" arrival="148.00" arrivalLane="W_out_0" arrivalPos="89.60" arrivalSpeed="13.37" duration="76.00" routeLength="183.12" waitingTime="52.00" waitingCount="1" stopTime="0.00" timeLoss="61.94" rerouteNo="1" devices="tripinfo_flow_N_to_W.6 routing_flow_N_to_W.6" vType="car" speedFactor="1.10" vaporized=""/>
    <tripinfo id="flow_N_to_W.7" depart="84.00" departLane="N1_in_0" departPos="5.10" departSpeed="0.00" departDelay="0.00" arrival="148.00" arrivalLane="W_out_1" arrivalPos="89.60" arrivalSpeed="12.75" duration="64.00" routeLength="188.28" waitingTime="40.00" waitingCount="1" stopTime="0.00" timeLoss="49.83" rerouteNo="1" devices="tripinfo_flow_N_to_W.7 routing_flow_N_to_W.7" vType="car" speedFactor="1.04" vaporized=""/>
    <tripinfo id="flow_N_to_E.9" depart="111.00" departLane="N1_in_0" departPos="5.10" departSpeed="0.00" departDelay="3.00" arrival="148.00" arrivalLane="E_out_1" arrivalPos="4.67" arrivalSpeed="10.58" duration="37.00" routeLength="108.51" waitingTime="17.00" waitingCount="1" stopTime="0.00" timeLoss="28.36" rerouteNo="1" devices="tripinfo_flow_N_to_E.9 routing_flow_N_to_E.9" vType="car" speedFactor="1.14" vaporized=""/>
    <tripinfo id="flow_N_to_E.10" depart="123.00" departLane="N1_in_0" departPos="5.10" departSpeed="0.00" departDelay="3.00" arrival="151.00" arrivalLane="E_out_1" arrivalPos="4.67" arrivalSpeed="10.03" duration="28.00" routeLength="108.51" waitingTime="8.00" waitingCount="1" stopTime="0.00" timeLoss="18.84" rerouteNo="1" devices="tripinfo_flow_N_to_E.10 routing_flow_N_to_E.10" vType="car" speedFactor="0.99" vaporized=""/>
    <tripinfo id="flow_N_to_E.11" depart="135.00" departLane="N1_in_0" departPos="5.10" departSpeed="0.00" departDelay="3.00" arrival="153.00" arrivalLane="E_out_1" arrivalPos="4.67" arrivalSpeed="11.00" duration="18.00" routeLength="108.51" waitingTime="0.00" waitingCount="0" stopTime="0.00" timeLoss="8.91" rerouteNo="1" devices="tripinfo_flow_N_to_E.11 routing_flow_N_to_E.11" vType="car" speedFactor="1.02" vaporized=""/>
    <tripinfo id="flow_N_to_W.8" depart="96.00" departLane="N1_in_0" departPos="5.10" departSpeed="0.00" departDelay="0.00" arrival="154.00" arrivalLane="W_out_0" arrivalPos="89.60" arrivalSpeed="10.71" duration="58.00" routeLength="183.12" waitingTime="31.00" waitingCount="1" stopTime="0.00" timeLoss="41.87" rerouteNo="1" devices="tripinfo_flow_N_to_W.8 routing_flow_N_to_W.8" vType="car" speedFactor="0.85" vaporized=""/>
    <tripinfo id="flow_N_to_W.9" depart="108.00" departLane="N1_in_0" departPos="5.10" departSpeed="0.00" departDelay="0.00" arrival="157.00" arrivalLane="W_out_0" arrivalPos="89.60" arrivalSpeed="11.80" duration="49.00" routeLength="183.12" waitingTime="21.00" waitingCount="1" stopTime="0.00" timeLoss="32.65" rerouteNo="1" devices="tripinfo_flow_N_to_W.9 routing_flow_N_to_W.9" vType="car" speedFactor="0.90" vaporized=""/>
    <tripinfo id="flow_N_to_W.10" depart="120.00" departLane="N1_in_0" departPos="5.10" departSpeed="0.00" departDelay="0.00" arrival="159.00" arrivalLane="W_out_0" arrivalPos="89.60" arrivalSpeed="13.55" duration="39.00" routeLength="183.12" waitingTime="10.00" waitingCount="1" stopTime="0.00" timeLoss="24.19" rerouteNo="1" devices="tripinfo_flow_N_to_W.10 routing_flow_N_to_W.10" vType="car" speedFactor="1.02" vaporized=""/>
    <tripinfo id="flow_N_to_W.11" depart="132.00" departLane="N1_in_0" departPos="5.10" departSpeed="0.00" departDelay="0.00" arrival="161.00" arrivalLane="W_out_0" arrivalPos="89.60" arrivalSpeed="12.91" duration="29.00" routeLength="183.12" waitingTime="2.00" waitingCount="1" stopTime="0.00" timeLoss="14.93" rerouteNo="1" devices="tripinfo_flow_N_to_W.11 routing_flow_N_to_W.11" vType="car" speedFactor="1.04" vaporized=""/>
    <tripinfo id="flow_E_to_W.9" depart="108.00" departLane="E1_in_0" departPos="5.10" departSpeed="0.00" departDelay="0.00" arrival="169.00" arrivalLane="W_out_1" arrivalPos="89.60" arrivalSpeed="13.15" duration="61.00" routeLength="194.89" waitingTime="36.00" waitingCount="1" stopTime="0.00" timeLoss="46.45" rerouteNo="1" devices="tripinfo_flow_E_to_W.9 routing_flow_E_to_W.9" vType="car" speedFactor="1.00" vaporized=""/>
    <tripinfo id="flow_E_to_W.8" depart="96.00" departLane="E1_in_0" departPos="5.10" departSpeed="0.00" departDelay="0.00" arrival="170.00" arrivalLane="W_out_0" arrivalPos="89.60" arrivalSpeed="11.65" duration="74.00" routeLength="194.89" waitingTime="49.00" waitingCount="1" stopTime="0.00" timeLoss="57.29" rerouteNo="1" devices="tripinfo_flow_E_to_W.8 routing_flow_E_to_W.8" vType="car" speedFactor="0.88" vaporized=""/>
    <tripinfo id="flow_E_to_W.10" depart="120.00" departLane="E1_in_0" departPos="5.10" departSpeed="0.00" departDelay="0.00" arrival="172.00" arrivalLane="W_out_0" arrivalPos="89.60" arrivalSpeed="12.91" duration="52.00" routeLength="194.89" waitingTime="27.00" waitingCount="1" stopTime="0.00" timeLoss="37.24" rerouteNo="1" devices="tripinfo_flow_E_to_W.10 routing_flow_E_to_W.10" vType="car" speedFactor="1.08" vaporized=""/>
    <tripinfo id="flow_E_to_N.10" depart="123.00" departLane="E1_in_0" departPos="5.10" departSpeed="0.00" departDelay="3.00" arrival="173.00" arrivalLane="N1_out_0" arrivalPos="67.87" arrivalSpeed="13.52" duration="50.00" routeLength="170.60" waitingTime="25.00" waitingCount="1" stopTime="0.00" timeLoss="37.21" rerouteNo="1" devices="tripinfo_flow_E_to_N.10 routing_flow_E_to_N.10" vType="car" speedFactor="1.12" vaporized=""/>