<?xml version="1.0" encoding="UTF-8"?>

<!-- generated on 2025-09-23 23:25:56 by Eclipse SUMO sumo Version 1.24.0
<sumoConfiguration xmlns:xsi="http://www.w3.org/2001/XMLSchema-instance" xsi:noNamespaceSchemaLocation="http://sumo.dlr.de/xsd/sumoConfiguration.xsd">

    <input>
        <net-file value="data/net.xml"/>
        <route-files value="data/routes.xml"/>
        <additional-files value="tl_logic.xml"/>
    </input>

    <output>
        <tripinfo-output value="tripinfo.xml"/>
    </output>

    <report>
        <verbose value="true"/>
    </report>

</sumoConfiguration>
-->

<tripinfos xmlns:xsi="http://www.w3.org/2001/XMLSchema-instance" xsi:noNamespaceSchemaLocation="http://sumo.dlr.de/xsd/tripinfo_file.xsd">
    <tripinfo id="flow_N_to_E.0" depart="3.00" departLane="N1_in_0" departPos="5.10" departSpeed="0.00" departDelay="3.00" arrival="16.00" arrivalLane="E_out_1" arrivalPos="4.67" arrivalSpeed="11.96" duration="13.00" routeLength="108.51" waitingTime="0.00" waitingCount="0" stopTime="0.00" timeLoss="3.92" rerouteNo="1" devices="tripinfo_flow_N_to_E.0 routing_flow_N_to_E.0" vType="car" speedFactor="1.08" vaporized=""/>
    <tripinfo id="flow_N_to_W.0" depart="0.00" departLane="N1_in_0" departPos="5.10" departSpeed="0.00" departDelay="0.00" arrival="20.00" arrivalLane="W_out_0" arrivalPos="89.60" arrivalSpeed="13.39" duration="20.00" routeLength="183.12" waitingTime="0.00" waitingCount="0" stopTime="0.00" timeLoss="5.77" rerouteNo="1" devices="tripinfo_flow_N_to_W.0 routing_flow_N_to_W.0" vType="car" speedFactor="1.01" vaporized=""/>
    <tripinfo id="flow_E_to_N.0" depart="3.00" departLane="E1_in_0" departPos="5.10" departSpeed="0.00" departDelay="3.00" arrival="22.00" arrivalLane="N1_out_0" arrivalPos="67.87" arrivalSpeed="12.66" duration="19.00" routeLength="170.60" waitingTime="0.00" waitingCount="0" stopTime="0.00" timeLoss="5.38" rerouteNo="1" devices="tripinfo_flow_E_to_N.0 routing_flow_E_to_N.0" vType="car" speedFactor="0.94" vaporized=""/>
    <tripinfo id="flow_N_to_E.1" depart="15.00" departLane="N1_in_0" departPos="5.10" departSpeed="0.00" departDelay="3.00" arrival="29.00" arrivalLane="E_out_1" arrivalPos="4.67" arrivalSpeed="9.81" duration="14.00" routeLength="108.51" waitingTime="0.00" waitingCount="0" stopTime="0.00" timeLoss="3.72" rerouteNo="1" devices="tripinfo_flow_N_to_E.1 routing_flow_N_to_E.1" vType="car" speedFactor="0.86" vaporized=""/>
    <tripinfo id="flow_N_to_W.1" depart="12.00" departLane="N1_in_0" departPos="5.10" departSpeed="0.00" departDelay="0.00" arrival="32.00" arrivalLane="W_out_0" arrivalPos="89.60" arrivalSpeed="11.94" duration="20.00" routeLength="183.12" waitingTime="0.00" waitingCount="0" stopTime="0.00" timeLoss="4.65" rerouteNo="1" devices="tripinfo_flow_N_to_W.1 routing_flow_N_to_W.1" vType="car" speedFactor="0.94" vaporized=""/>
    <tripinfo id="flow_E_to_N.1" depart="15.00" departLane="E1_in_0" departPos="5.10" departSpeed="0.00" departDelay="3.00" arrival="34.00" arrivalLane="N1_out_0" arrivalPos="67.87" arrivalSpeed="11.98" duration="19.00" routeLength="170.60" waitingTime="0.00" waitingCount="0" stopTime="0.00" timeLoss="4.83" rerouteNo="1" devices="tripinfo_flow_E_to_N.1 routing_flow_E_to_N.1" vType="car" speedFactor="0.89" vaporized=""/>
    <tripinfo id="flow_N_to_E.2" depart="27.00" departLane="N1_in_0" departPos="5.10" departSpeed="0.00" departDelay="3.00" arrival="40.00" arrivalLane="E_out_1" arrivalPos="4.67" arrivalSpeed="7.74" duration="13.00" routeLength="108.51" waitingTime="0.00" waitingCount="0" stopTime="0.00" timeLoss="3.52" rerouteNo="1" devices="tripinfo_flow_N_to_E.2 routing_flow_N_to_E.2" vType="car" speedFactor="0.93" vaporized=""/>
    <tripinfo id="flow_N_to_W.2" depart="24.00" departLane="N1_in_0" departPos="5.10" departSpeed="0.00" departDelay="0.00" arrival="44.00" arrivalLane="W_out_0" arrivalPos="89.60" arrivalSpeed="12.91" duration="20.00" routeLength="183.12" waitingTime="0.00" waitingCount="0" stopTime="0.00" timeLoss="5.02" rerouteNo="1" devices="tripinfo_flow_N_to_W.2 routing_flow_N_to_W.2" vType="car" speedFactor="0.99" vaporized=""/>
    <tripinfo id="flow_N_to_E.3" depart="39.00" departLane="N1_in_0" departPos="5.10" departSpeed="0.00" departDelay="3.00" arrival="52.00" arrivalLane="E_out_1" arrivalPos="4.67" arrivalSpeed="10.73" duration="13.00" routeLength="108.51" waitingTime="0.00" waitingCount="0" stopTime="0.00" timeLoss="4.06" rerouteNo="1" devices="tripinfo_flow_N_to_E.3 routing_flow_N_to_E.3" vType="car" speedFactor="1.01" vaporized=""/>
    <tripinfo id="flow_N_to_W.3" depart="36.00" departLane="N1_in_0" departPos="5.10" departSpeed="0.00" departDelay="0.00" arrival="57.00" arrivalLane="W_out_0" arrivalPos="89.60" arrivalSpeed="12.71" duration="21.00" routeLength="183.12" waitingTime="0.00" waitingCount="0" stopTime="0.00" timeLoss="6.55" rerouteNo="1" devices="tripinfo_flow_N_to_W.3 routing_flow_N_to_W.3" vType="car" speedFactor="1.02" vaporized=""/>
    <tripinfo id="flow_N_to_E.4" depart="51.00" departLane="N1_in_0" departPos="5.10" departSpeed="0.00" departDelay="3.00" arrival="64.00" arrivalLane="E_out_1" arrivalPos="4.67" arrivalSpeed="8.41" duration="13.00" routeLength="108.51" waitingTime="0.00" waitingCount="0" stopTime="0.00" timeLoss="4.10" rerouteNo="1" devices="tripinfo_flow_N_to_E.4 routing_flow_N_to_E.4" vType="car" speedFactor="0.95" vaporized=""/>
    <tripinfo id="flow_N_to_W.4" depart="48.00" departLane="N1_in_0" departPos="5.10" departSpeed="0.00" departDelay="0.00" arrival="69.00" arrivalLane="W_out_0" arrivalPos="89.60" arrivalSpeed="12.21" duration="21.00" routeLength="183.12" waitingTime="0.00" waitingCount="0" stopTime="0.00" timeLoss="5.59" rerouteNo="1" devices="tripinfo_flow_N_to_W.4 routing_flow_N_to_W.4" vType="car" speedFactor="0.92" vaporized=""/>
    <tripinfo id="flow_E_to_W.0" depart="0.00" departLane="E1_in_0" departPos="5.10" departSpeed="0.00" departDelay="0.00" arrival="83.00" arrivalLane="W_out_1" arrivalPos="89.60" arrivalSpeed="13.79" duration="83.00" routeLength="194.89" waitingTime="60.00" waitingCount="1" stopTime="0.00" timeLoss="68.44" rerouteNo="1" devices="tripinfo_flow_E_to_W.0 routing_flow_E_to_W.0" vType="car" speedFactor="1.06" vaporized=""/>
    <tripinfo id="flow_E_to_W.1" depart="12.00" departLane="E1_in_0" departPos="5.10" departSpeed="0.00" departDelay="0.00" arrival="83.00" arrivalLane="W_out_0" arrivalPos="89.60" arrivalSpeed="13.18" duration="71.00" routeLength="194.89" waitingTime="46.00" waitingCount="1" stopTime="0.00" timeLoss="56.93" rerouteNo="1" devices="tripinfo_flow_E_to_W.1 routing_flow_E_to_W.1" vType="car" speedFactor="1.05" vaporized=""/>
    <tripinfo id="flow_E_to_W.2" depart="24.00" departLane="E1_in_0" departPos="5.10" departSpeed="0.00" departDelay="0.00" arrival="86.00" arrivalLane="W_out_0" arrivalPos="89.60" arrivalSpeed="13.85" duration="62.00" routeLength="194.89" waitingTime="38.00" waitingCount="1" stopTime="0.00" timeLoss="47.41" rerouteNo="1" devices="tripinfo_flow_E_to_W.2 routing_flow_E_to_W.2" vType="car" speedFactor="1.05" vaporized=""/>
    <tripinfo id="flow_E_to_W.3" depart="36.00" departLane="E1_in_0" departPos="5.10" departSpeed="0.00" departDelay="0.00" arrival="86.00" arrivalLane="W_out_1" arrivalPos="89.60" arrivalSpeed="12.12" duration="50.00" routeLength="194.89" waitingTime="25.00" waitingCount="1" stopTime="0.00" timeLoss="34.72" rerouteNo="1" devices="tripinfo_flow_E_to_W.3 routing_flow_E_to_W.3" vType="car" speedFactor="0.94" vaporized=""/>
    <tripinfo id="flow_E_to_N.2" depart="27.00" departLane="E1_in_0" departPos="5.10" departSpeed="0.00" departDelay="3.00" arrival="87.00" arrivalLane="N1_out_0" arrivalPos="67.87" arrivalSpeed="13.72" duration="60.00" routeLength="170.60" waitingTime="36.00" waitingCount="1" stopTime="0.00" timeLoss="46.90" rerouteNo="1" devices="tripinfo_flow_E_to_N.2 routing_flow_E_to_N.2" vType="car" speedFactor="1.12" vaporized=""/>
    <tripinfo id="flow_E_to_N.3" depart="39.00" departLane="E1_in_0" departPos="5.10" departSpeed="0.00" departDelay="3.00" arrival="89.00" arrivalLane="N1_out_0" arrivalPos="67.87" arrivalSpeed="13.18" duration="50.00" routeLength="170.60" waitingTime="27.00" waitingCount="1" stopTime="0.00" timeLoss="37.18" rerouteNo="1" devices="tripinfo_flow_E_to_N.3 routing_flow_E_to_N.3" vType="car" speedFactor="1.16" vaporized=""/>
    <tripinfo id="flow_E_to_W.4" depart="48.00" departLane="E1_in_0" departPos="5.10" departSpeed="0.00" departDelay="0.00" arrival="89.00" arrivalLane="W_out_1" arrivalPos="89.60" arrivalSpeed="11.15" duration="41.00" routeLength="194.89" waitingTime="15.00" waitingCount="1" stopTime="0.00" timeLoss="23.93" rerouteNo="1" devices="tripinfo_flow_E_to_W.4 routing_flow_E_to_W.4" vType="car" speedFactor="0.83" vaporized=""/>
    <tripinfo id="flow_E_to_W.5" depart="60.00" departLane="E1_in_0" departPos="5.10" departSpeed="0.00" departDelay="0.00" arrival="91.00" arrivalLane="W_out_1" arrivalPos="89.60" arrivalSpeed="12.74" duration="31.00" routeLength="194.89" waitingTime="3.00" waitingCount="1" stopTime="0.00" timeLoss="16.46" rerouteNo="1" devices="tripinfo_flow_E_to_W.5 routing_flow_E_to_W.5" vType="car" speedFactor="1.18" vaporized=""/>
    <tripinfo id="flow_E_to_N.4" depart="51.00" departLane="E1_in_0" departPos="5.10" departSpeed="0.00" departDelay="3.00" arrival="92.00" arrivalLane="N1_out_0" arrivalPos="67.87" arrivalSpeed="11.68" duration="41.00" routeLength="170.60" waitingTime="15.00" waitingCount="1" stopTime="0.00" timeLoss="26.55" rerouteNo="1" devices="tripinfo_flow_E_to_N.4 routing_flow_E_to_N.4" vType="car" speedFactor="0.87" vaporized=""/>
    <tripinfo id="flow_E_to_W.6" depart="72.00" departLane="E1_in_0" departPos="5.10" departSpeed="0.00" departDelay="0.00" arrival="93.00" arrivalLane="W_out_1" arrivalPos="89.60" arrivalSpeed="13.41" duration="21.00" routeLength="194.89" waitingTime="0.00" waitingCount="0" stopTime="0.00" timeLoss="5.90" rerouteNo="1" devices="tripinfo_flow_E_to_W.6 routing_flow_E_to_W.6" vType="car" speedFactor="0.97" vaporized=""/>
    <tripinfo id="flow_E_to_N.5" depart="63.00" departLane="E1_in_0" departPos="5.10" departSpeed="0.00" departDelay="3.00" arrival="94.00" arrivalLane="N1_out_0" arrivalPos="67.87" arrivalSpeed="13.56" duration="31.00" routeLength="170.60" waitingTime="5.00" waitingCount="1" stopTime="0.00" timeLoss="18.25" rerouteNo="1" devices="tripinfo_flow_E_to_N.5 routing_flow_E_to_N.5" vType="car" speedFactor="1.15" vaporized=""/>
    <tripinfo id="flow_E_to_N.6" depart="74.00" departLane="E1_in_0" departPos="5.10" departSpeed="0.00" departDelay="2.00" arrival="100.00" arrivalLane="N1_out_0" arrivalPos="67.87" arrivalSpeed="13.65" duration="26.00" routeLength="170.60" waitingTime="0.00" waitingCount="0" stopTime="0.00" timeLoss="12.80" rerouteNo="1" devices="tripinfo_flow_E_to_N.6 routing_flow_E_to_N.6" vType="car" speedFactor="1.18" vaporized=""/>
    <tripinfo id="flow_E_to_W.7" depart="84.00" departLane="E1_in_0" departPos="5.10" departSpeed="0.00" departDelay="0.00" arrival="102.00" arrivalLane="W_out_0" arrivalPos="89.60" arrivalSpeed="13.42" duration="18.00" routeLength="194.89" waitingTime="0.00" waitingCount="0" stopTime="0.00" timeLoss="3.87" rerouteNo="1" devices="tripinfo_flow_E_to_W.7 routing_flow_E_to_W.7" vType="car" speedFactor="1.09" vaporized=""/>
    <tripinfo id="flow_E_to_N.7" depart="87.00" departLane="E1_in_0" departPos="5.10" departSpeed="0.00" departDelay="3.00" arrival="105.00" arrivalLane="N1_out_0" arrivalPos="67.87" arrivalSpeed="13.08" duration="18.00" routeLength="170.60" waitingTime="0.00" waitingCount="0" stopTime="0.00" timeLoss="5.00" rerouteNo="1" devices="tripinfo_flow_E_to_N.7 routing_flow_E_to_N.7" vType="car" speedFactor="1.04" vaporized=""/>
    <tripinfo id="flow_W_to_E.0" depart="0.00" departLane="W_in_0" departPos="5.10" departSpeed="0.00" departDelay="0.00" arrival="110.00" arrivalLane="E1_out_0" arrivalPos="67.87" arrivalSpeed="13.59" duration="110.00" routeLength="194.89" waitingTime="85.00" waitingCount="1" stopTime="0.00" timeLoss="95.85" rerouteNo="1" devices="tripinfo_flow_W_to_E.0 routing_flow_W_to_E.0" vType="car" speedFactor="1.03" vaporized=""/>
    <tripinfo id="flow_W_to_N.0" depart="3.00" departLane="W_in_0" departPos="5.10" departSpeed="0.00" departDelay="3.00" arrival="111.00" arrivalLane="N1_out_1" arrivalPos="67.87" arrivalSpeed="10.83" duration="108.00" routeLength="193.44" waitingTime="82.00" waitingCount="1" stopTime="0.00" timeLoss="89.99" rerouteNo="1" devices="tripinfo_flow_W_to_N.0 routing_flow_W_to_N.0" vType="car" speedFactor="0.83" vaporized=""/>
    <tripinfo id="flow_W_to_E.1" depart="12.00" departLane="W_in_0" departPos="5.10" departSpeed="0.00" departDelay="0.00" arrival="112.00" arrivalLane="E1_out_0" arrivalPos="67.87" arrivalSpeed="13.72" duration="100.00" routeLength="194.89" waitingTime="76.00" waitingCount="1" stopTime="0.00" timeLoss="85.66" rerouteNo="1" devices="tripinfo_flow_W_to_E.1 routing_flow_W_to_E.1" vType="car" speedFactor="1.09" vaporized=""/>
    <tripinfo id="flow_W_to_N.1" depart="15.00" departLane="W_in_0" departPos="5.10" departSpeed="0.00" departDelay="3.00" arrival="112.00" arrivalLane="N1_out_1" arrivalPos="67.87" arrivalSpeed="13.39" duration="97.00" routeLength="193.44" waitingTime="73.00" waitingCount="1" stopTime="0.00" timeLoss="82.36" rerouteNo="1" devices="tripinfo_flow_W_to_N.1 routing_flow_W_to_N.1" vType="car" speedFactor="1.03" vaporized=""/>
    <tripinfo id="flow_W_to_E.2" depart="24.00" departLane="W_in_0" departPos="5.10" departSpeed="0.00" departDelay="0.00" arrival="115.00" arrivalLane="E1_out_0" arrivalPos="67.87" arrivalSpeed="11.73" duration="91.00" routeLength="194.89" waitingTime="65.00" waitingCount="1" stopTime="0.00" timeLoss="74.34" rerouteNo="1" devices="tripinfo_flow_W_to_E.2 routing_flow_W_to_E.2" vType="car" speedFactor="0.88" vaporized=""/>
    <tripinfo id="flow_W_to_N.2" depart="27.00" departLane="W_in_0" departPos="5.10" departSpeed="0.00" departDelay="3.00" arrival="115.00" arrivalLane="N1_out_1" arrivalPos="67.87" arrivalSpeed="12.45" duration="88.00" routeLength="193.44" waitingTime="62.00" waitingCount="1" stopTime="0.00" timeLoss="71.85" rerouteNo="1" devices="tripinfo_flow_W_to_N.2 routing_flow_W_to_N.2" vType="car" speedFactor="0.94" vaporized=""/>
    <tripinfo id="flow_W_to_E.3" depart="36.00" departLane="W_in_0" departPos="5.10" departSpeed="0.00" departDelay="0.00" arrival="116.00" arrivalLane="E1_out_0" arrivalPos="67.87" arrivalSpeed="13.03" duration="80.00" routeLength="194.89" waitingTime="55.00" waitingCount="1" stopTime="0.00" timeLoss="65.58" rerouteNo="1" devices="tripinfo_flow_W_to_E.3 routing_flow_W_to_E.3" vType="car" speedFactor="0.97" vaporized=""/>
    <tripinfo id="flow_W_to_N.3" depart="39.00" departLane="W_in_0" departPos="5.10" departSpeed="0.00" departDelay="3.00" arrival="118.00" arrivalLane="N1_out_1" arrivalPos="67.87" arrivalSpeed="11.20" duration="79.00" routeLength="193.44" waitingTime="51.00" waitingCount="1" stopTime="0.00" timeLoss="61.81" rerouteNo="1" devices="tripinfo_flow_W_to_N.3 routing_flow_W_to_N.3" vType="car" speedFactor="0.89" vaporized=""/>
    <tripinfo id="flow_W_to_E.4" depart="48.00" departLane="W_in_0" departPos="5.10" departSpeed="0.00" departDelay="0.00" arrival="118.00" arrivalLane="E1_out_0" arrivalPos="67.87" arrivalSpeed="13.05" duration="70.00" routeLength="194.89" waitingTime="45.00" waitingCount="1" stopTime="0.00" timeLoss="55.66" rerouteNo="1" devices="tripinfo_flow_W_to_E.4 routing_flow_W_to_E.4" vType="car" speedFactor="1.13" vaporized=""/>
    <tripinfo id="flow_W_to_N.4" depart="51.00" departLane="W_in_0" departPos="5.10" departSpeed="0.00" departDelay="3.00" arrival="120.00" arrivalLane="N1_out_1" arrivalPos="67.87" arrivalSpeed="11.73" duration="69.00" routeLength="193.44" waitingTime="41.00" waitingCount="1" stopTime="0.00" timeLoss="52.23" rerouteNo="1" devices="tripinfo_flow_W_to_N.4 routing_flow_W_to_N.4" vType="car" speedFactor="0.93" vaporized=""/>
    <tripinfo id="flow_W_to_E.5" depart="60.00" departLane="W_in_0" departPos="5.10" departSpeed="0.00" departDelay="0.00" arrival="120.00" arrivalLane="E1_out_0" arrivalPos="67.87" arrivalSpeed="13.47" duration="60.00" routeLength="194.89" waitingTime="33.00" waitingCount="1" stopTime="0.00" timeLoss="45.29" rerouteNo="1" devices="tripinfo_flow_W_to_E.5 routing_flow_W_to_E.5" vType="car" speedFactor="0.99" vaporized=""/>
    <tripinfo id="flow_W_to_N.5" depart="63.00" departLane="W_in_0" departPos="5.10" departSpeed="0.00" departDelay="3.00" arrival="121.00" arrivalLane="N1_out_1" arrivalPos="67.87" arrivalSpeed="13.64" duration="58.00" routeLength="193.44" waitingTime="31.00" waitingCount="1" stopTime="0.00" timeLoss="43.02" rerouteNo="1" devices="tripinfo_flow_W_to_N.5 routing_flow_W_to_N.5" vType="car" speedFactor="1.02" vaporized=""/>
    <tripinfo id="flow_W_to_E.6" depart="72.00" departLane="W_in_0" departPos="5.10" departSpeed="0.00" departDelay="0.00" arrival="122.00" arrivalLane="E1_out_0" arrivalPos="67.87" arrivalSpeed="13.79" duration="50.00" routeLength="194.89" waitingTime="23.00" waitingCount="1" stopTime="0.00" timeLoss="34.99" rerouteNo="1" devices="tripinfo_flow_W_to_E.6 routing_flow_W_to_E.6" vType="car" speedFactor="1.03" vaporized=""/>
    <tripinfo id="flow_W_to_N.6" depart="75.00" departLane="W_in_0" departPos="5.10" departSpeed="0.00" departDelay="3.00" arrival="123.00" arrivalLane="N1_out_1" arrivalPos="67.87" arrivalSpeed="13.22" duration="48.00" routeLength="193.44" waitingTime="21.00" waitingCount="1" stopTime="0.00" timeLoss="32.79" rerouteNo="1" devices="tripinfo_flow_W_to_N.6 routing_flow_W_to_N.6" vType="car" speedFactor="0.96" vaporized=""/>
    <tripinfo id="flow_W_to_E.7" depart="84.00" departLane="W_in_0" departPos="5.10" departSpeed="0.00" departDelay="0.00" arrival="123.00" arrivalLane="E1_out_0" arrivalPos="67.87" arrivalSpeed="13.17" duration="39.00" routeLength="194.89" waitingTime="12.00" waitingCount="1" stopTime="0.00" timeLoss="24.81" rerouteNo="1" devices="tripinfo_flow_W_to_E.7 routing_flow_W_to_E.7" vType="car" speedFactor="1.00" vaporized=""/>
    <tripinfo id="flow_W_to_E.8" depart="96.00" departLane="W_in_0" departPos="5.10" departSpeed="0.00" departDelay="0.00" arrival="125.00" arrivalLane="E1_out_0" arrivalPos="67.87" arrivalSpeed="13.86" duration="29.00" routeLength="194.89" waitingTime="4.00" waitingCount="1" stopTime="0.00" timeLoss="14.58" rerouteNo="1" devices="tripinfo_flow_W_to_E.8 routing_flow_W_to_E.8" vType="car" speedFactor="1.02" vaporized=""/>
    <tripinfo id="flow_W_to_N.7" depart="87.00" departLane="W_in_0" departPos="5.10" departSpeed="0.00" departDelay="3.00" arrival="126.00" arrivalLane="N1_out_1" arrivalPos="67.87" arrivalSpeed="11.40" duration="39.00" routeLength="193.44" waitingTime="10.00" waitingCount="1" stopTime="0.00" timeLoss="22.51" rerouteNo="1" devices="tripinfo_flow_W_to_N.7 routing_flow_W_to_N.7" vType="car" speedFactor="0.90" vaporized=""/>
    <tripinfo id="flow_W_to_E.9" depart="108.00" departLane="W_in_0" departPos="5.10" departSpeed="0.00" departDelay="0.00" arrival="127.00" arrivalLane="E1_out_0" arrivalPos="67.87" arrivalSpeed="12.85" duration="19.00" routeLength="194.89" waitingTime="0.00" waitingCount="0" stopTime="0.00" timeLoss="4.38" rerouteNo="1" devices="tripinfo_flow_W_to_E.9 routing_flow_W_to_E.9" vType="car" speedFactor="1.02" vaporized=""/>
    <tripinfo id="flow_W_to_N.8" depart="99.00" departLane="W_in_0" departPos="5.10" departSpeed="0.00" departDelay="3.00" arrival="128.00" arrivalLane="N1_out_1" arrivalPos="67.87" arrivalSpeed="13.01" duration="29.00" routeLength="193.44" waitingTime="1.00" waitingCount="1" stopTime="0.00" timeLoss="13.92" rerouteNo="1" devices="tripinfo_flow_W_to_N.8 routing_flow_W_to_N.8" vType="car" speedFactor="1.10" vaporized=""/>
    <tripinfo id="flow_W_to_N.9" depart="111.00" departLane="W_in_0" departPos="5.10" departSpeed="0.00" departDelay="3.00" arrival="131.00" arrivalLane="N1_out_1" arrivalPos="67.87" arrivalSpeed="12.81" duration="20.00" routeLength="193.44" waitingTime="0.00" waitingCount="0" stopTime="0.00" timeLoss="4.47" rerouteNo="1" devices="tripinfo_flow_W_to_N.9 routing_flow_W_to_N.9" vType="car" speedFactor="0.97" vaporized=""/>
    <tripinfo id="flow_E_to_N.8" depart="99.00" departLane="E1_in_0" departPos="5.10" departSpeed="0.00" departDelay="3.00" arrival="134.00" arrivalLane="N1_out_0" arrivalPos="67.87" arrivalSpeed="11.08" duration="35.00" routeLength="170.60" waitingTime="13.00" waitingCount="1" stopTime="0.00" timeLoss="20.16" rerouteNo="1" devices="tripinfo_flow_E_to_N.8 routing_flow_E_to_N.8" vType="car" speedFactor="0.85" vaporized=""/>
    <tripinfo id="flow_E_to_N.9" depart="111.00" departLane="E1_in_0" departPos="5.10" departSpeed="0.00" departDelay="3.00" arrival="138.00" arrivalLane="N1_out_0" arrivalPos="67.87" arrivalSpeed="12.74" duration="27.00" routeLength="170.60" waitingTime="4.00" waitingCount="1" stopTime="0.00" timeLoss="14.02" rerouteNo="1" devices="tripinfo_flow_E_to_N.9 routing_flow_E_to_N.9" vType="car" speedFactor="1.00" vaporized=""/>
    <tripinfo id="flow_W_to_E.10" depart="120.00" departLane="W_in_0" departPos="5.10" departSpeed="0.00" departDelay="0.00" arrival="139.00" arrivalLane="E1_out_0" arrivalPos="67.87" arrivalSpeed="12.53" duration="19.00" routeLength="194.89" waitingTime="0.00" waitingCount="0" stopTime="0.00" timeLoss="3.14" rerouteNo="1" devices="tripinfo_flow_W_to_E.10 routing_flow_W_to_E.10" vType="car" speedFactor="0.94" vaporized=""/>
    <tripinfo id="flow_W_to_N.10" depart="123.00" departLane="W_in_0" departPos="5.10" departSpeed="0.00" departDelay="3.00" arrival="144.00" arrivalLane="N1_out_1" arrivalPos="67.87" arrivalSpeed="11.52" duration="21.00" routeLength="193.44" waitingTime="0.00" waitingCount="0" stopTime="0.00" timeLoss="3.90" rerouteNo="1" devices="tripinfo_flow_W_to_N.10 routing_flow_W_to_N.10" vType="car" speedFactor="0.88" vaporized=""/>
    <tripinfo id="flow_W_to_E.11" depart="132.00" departLane="W_in_0" departPos="5.10" departSpeed="0.00" departDelay="0.00" arrival="151.00" arrivalLane="E1_out_0" arrivalPos="67.87" arrivalSpeed="12.69" duration="19.00" routeLength="194.89" waitingTime="0.00" waitingCount="0" stopTime="0.00" timeLoss="4.30" rerouteNo="1" devices="tripinfo_flow_W_to_E.11 routing_flow_W_to_E.11" vType="car" speedFactor="1.02" vaporized=""/>
    <tripinfo id="flow_W_to_N.11" depart="135.00" departLane="W_in_0" departPos="5.10" departSpeed="0.00" departDelay="3.00" arrival="155.00" arrivalLane="N1_out_1" arrivalPos="67.87" arrivalSpeed="12.95" duration="20.00" routeLength="193.44" waitingTime="0.00" waitingCount="0" stopTime="0.00" timeLoss="4.80" rerouteNo="1" devices="tripinfo_flow_W_to_N.11 routing_flow_W_to_N.11" vType="car" speedFactor="0.97" vaporized=""/>
    <tripinfo id="flow_W_to_E.12" depart="144.00" departLane="W_in_0" departPos="5.10" departSpeed="0.00" departDelay="0.00" arrival="162.00" arrivalLane="E1_out_0" arrivalPos="67.87" arrivalSpeed="12.66" duration="18.00" routeLength="194.89" waitingTime="0.00" waitingCount="0" stopTime="0.00" timeLoss="3.74" rerouteNo="1" devices="tripinfo_flow_W_to_E.12 routing_flow_W_to_E.12" vType="car" speedFactor="1.03" vaporized=""/>
    <tripinfo id="flow_W_to_N.12" depart="147.00" departLane="W_in_0" departPos="5.10" departSpeed="0.00" departDelay="3.00" arrival="166.00" arrivalLane="N1_out_1" arrivalPos="67.87" arrivalSpeed="13.01" duration="19.00" routeLength="193.44" waitingTime="0.00" waitingCount="0" stopTime="0.00" timeLoss="4.10" rerouteNo="1" devices="tripinfo_flow_W_to_N.12 routing_flow_W_to_N.12" vType="car" speedFactor="0.98" vaporized=""/>
    <tripinfo id="flow_W_to_E.13" depart="156.00" departLane="W_in_0" departPos="5.10" departSpeed="0.00" departDelay="0.00" arrival="174.00" arrivalLane="E1_out_0" arrivalPos="67.87" arrivalSpeed="13.04" duration="18.00" routeLength="194.89" waitingTime="0.00" waitingCount="0" stopTime="0.00" timeLoss="3.85" rerouteNo="1" devices="tripinfo_flow_W_to_E.13 routing_flow_W_to_E.13" vType="car" speedFactor="1.02" vaporized=""/>
    <tripinfo id="flow_W_to_N.13" depart="159.00" departLane="W_in_0" departPos="5.10" departSpeed="0.00" departDelay="3.00" arrival="179.00" arrivalLane="N1_out_1" arrivalPos="67.87" arrivalSpeed="13.11" duration="20.00" routeLength="193.44" waitingTime="0.00" waitingCount="0" stopTime="0.00" timeLoss="4.30" rerouteNo="1" devices="tripinfo_flow_W_to_N.13 routing_flow_W_to_N.13" vType="car" speedFactor="0.97" vaporized=""/>
    <tripinfo id="flow_W_to_E.14" depart="168.00" departLane="W_in_0" departPos="5.10" departSpeed="0.00" departDelay="0.00" arrival="186.00" arrivalLane="E1_out_0" arrivalPos="67.87" arrivalSpeed="12.92" duration="18.00" routeLength="194.89" waitingTime="0.00" waitingCount="0" stopTime="0.00" timeLoss="3.79" rerouteNo="1" devices="tripinfo_flow_W_to_E.14 routing_flow_W_to_E.14" vType="car" speedFactor="1.01" vaporized=""/>
    <tripinfo id="flow_W_to_N.14" depart="171.00" departLane="W_in_0" departPos="5.10" departSpeed="0.00" departDelay="3.00" arrival="190.00" arrivalLane="N1_out_1" arrivalPos="67.87" arrivalSpeed="12.91" duration="19.00" routeLength="193.44" waitingTime="0.00" waitingCount="0" stopTime="0.00" timeLoss="4.19" rerouteNo="1" devices="tripinfo_flow_W_to_N.14 routing_flow_W_to_N.14" vType="car" speedFactor="1.02" vaporized=""/>
    <tripinfo id="flow_W_to_E.15" depart="180.00" departLane="W_in_0" departPos="5.10" departSpeed="0.00" departDelay="0.00" arrival="198.00" arrivalLane="E1_out_0" arrivalPos="67.87" arrivalSpeed="13.45" duration="18.00" routeLength="194.89" waitingTime="0.00" waitingCount="0" stopTime="0.00" timeLoss="3.60" rerouteNo="1" devices="tripinfo_flow_W_to_E.15 routing_flow_W_to_E.15" vType="car" speedFactor="1.09" vaporized=""/>
    <tripinfo id="flow_W_to_N.15" depart="183.00" departLane="W_in_0" departPos="5.10" departSpeed="0.00" departDelay="3.00" arrival="202.00" arrivalLane="N1_out_1" arrivalPos="67.87" arrivalSpeed="12.98" duration="19.00" routeLength="193.44" waitingTime="0.00" waitingCount="0" stopTime="0.00" timeLoss="4.29" rerouteNo="1" devices="tripinfo_flow_W_to_N.15 routing_flow_W_to_N.15" vType="car" speedFactor="1.06" vaporized=""/>
    <tripinfo id="flow_N_to_E.5" depart="63.00" departLane="N1_in_0" departPos="5.10" departSpeed="0.00" departDelay="3.00" arrival="209.00" arrivalLane="E_out_1" arrivalPos="4.67" arrivalSpeed="9.97" duration="146.00" routeLength="108.51" waitingTime="131.00" waitingCount="1" stopTime="0.00" timeLoss="137.41" rerouteNo="1" devices="tripinfo_flow_N_to_E.5 routing_flow_N_to_E.5" vType="car" speedFactor="1.17" vaporized=""/>
    <tripinfo id="flow_N_to_E.6" depart="75.00" departLane="N1_in_0" departPos="5.10" departSpeed="0.00" departDelay="3.00" arrival="213.00" arrivalLane="E_out_1" arrivalPos="4.67" arrivalSpeed="8.32" duration="138.00" routeLength="108.51" waitingTime="120.00" waitingCount="1" stopTime="0.00" timeLoss="128.21" rerouteNo="1" devices="tripinfo_flow_N_to_E.6 routing_flow_N_to_E.6" vType="car" speedFactor="0.90" vaporized=""/>
    <tripinfo id="flow_N_to_E.7" depart="87.00" departLane="N1_in_0" departPos="5.10" departSpeed="0.00" departDelay="3.00" arrival="215.00" arrivalLane="E_out_1" arrivalPos="4.67" arrivalSpeed="8.99" duration="128.00" routeLength="108.51" waitingTime="108.00" waitingCount="1" stopTime="0.00" timeLoss="119.25" rerouteNo="1" devices="tripinfo_flow_N_to_E.7 routing_flow_N_to_E.7" vType="car" speedFactor="1.09" vaporized=""/>
    <tripinfo id="flow_N_to_W.5" depart="60.00" departLane="N1_in_0" departPos="5.10" departSpeed="0.00" departDelay="0.00" arrival="216.00" arrivalLane="W_out_0" arrivalPos="89.60" arrivalSpeed="13.00" duration="156.00" routeLength="183.12" waitingTime="133.00" waitingCount="1" stopTime="0.00" timeLoss="141.41" rerouteNo="1" devices="tripinfo_flow_N_to_W.5 routing_flow_N_to_W.5" vType="car" speedFactor="1.01" vaporized=""/>
    <tripinfo id="flow_N_to_E.8" depart="99.00" departLane="N1_in_0" departPos="5.10" departSpeed="0.00" departDelay="3.00" arrival="217.00" arrivalLane="E_out_1" arrivalPos="4.67" arrivalSpeed="12.07" duration="118.00" routeLength="108.51" waitingTime="98.00" waitingCount="1" stopTime="0.00" timeLoss="109.26" rerouteNo="1" devices="tripinfo_flow_N_to_E.8 routing_flow_N_to_E.8" vType="car" speedFactor="1.17" vaporized=""/>
    <tripinfo id="flow_N_to_W.6" depart="72.00" departLane="N1_in_0" departPos="5.10" departSpeed="0.00" departDelay="0.00" arrival="219.00" arrivalLane="W_out_0" arrivalPos="89.60" arrivalSpeed="13.82" duration="147.00" routeLength="183.12" waitingTime="123.00" waitingCount="1" stopTime="0.00" timeLoss="132.50" rerouteNo="1" devices="tripinfo_flow_N_to_W.6 routing_flow_N_to_W.6" vType="car" speedFactor="1.10" vaporized=""/>
    <tripinfo id="flow_N_to_E.9" depart="111.00" departLane="N1_in_0" departPos="5.10" departSpeed="0.00" departDelay="3.00" arrival="219.00" arrivalLane="E_out_1" arrivalPos="4.67" arrivalSpeed="12.54" duration="108.00" routeLength="108.51" waitingTime="89.00" waitingCount="1" stopTime="0.00" timeLoss="99.39" rerouteNo="1" devices="tripinfo_flow_N_to_E.9 routing_flow_N_to_E.9" vType="car" speedFactor="1.14" vaporized=""/>
    <tripinfo id="flow_N_to_W.7" depart="84.00" departLane="N1_in_0" departPos="5.10" departSpeed="0.00" departDelay="0.00" arrival="222.00" arrivalLane="W_out_0" arrivalPos="89.60" arrivalSpeed="12.89" duration="138.00" routeLength="183.12" waitingTime="112.00" waitingCount="1" stopTime="0.00" timeLoss="124.17" rerouteNo="1" devices="tripinfo_flow_N_to_W.7 routing_flow_N_to_W.7" vType="car" speedFactor="1.04" vaporized=""/>